LAMMPS data file via write_data, version 22 Jul 2025, timestep = 30000, units = real

576 atoms
2 atom types

-12.122438420265288 32.70801613186275 xlo xhi
2.304856672802493 18.280721038790105 ylo yhi
1.4298930312527105 19.155684680341636 zlo zhi

Atom Type Labels

1 Si
2 O

Masses

1 28.0855
2 15.999

Atoms # full

290 33 1 2.066881368071704 -6.245855931308264 5.888750468264128 5.030498015135517 0 2 -1
488 55 1 2.174812546918971 -5.917633858653519 5.611618595056857 8.161549603006787 1 1 -1
124 14 2 -1.029376725371272 -5.933462528056741 5.691370518785686 6.586435378710957 -3 -3 2
210 24 1 2.045768194075574 -6.016438735555025 8.460509316547613 9.236130965393826 1 -1 -5
306 34 2 -1.012010946379453 -5.723444754024944 9.502681463907232 8.119187816043047 -2 0 0
536 60 2 -0.997129980350794 -6.987317547203949 4.531518698675583 4.567084266001835 1 4 2
404 45 2 -1.013016560662374 -7.110122749950328 7.189966849004694 4.768751243690424 6 -3 4
159 18 2 -0.9720219217720755 -7.485738399457586 8.654380816154749 9.858710964169349 2 2 -14
330 37 2 -0.8636455451317324 -7.032896527926775 9.860607784990462 4.353383735254783 -2 2 -7
198 22 2 -0.9292794377151747 -8.337877669071029 8.222524338201183 2.7239324183576543 6 -3 0
137 16 1 1.960792228969861 -9.001686235705083 5.379394528184154 8.337622727277516 2 2 -1
120 14 1 1.989687490651773 -7.915815046331558 3.3584702575188583 4.033572300919705 -4 5 -5
61 7 2 -1.013679028379208 -7.432601192352556 5.388099412147888 8.581474147227652 -6 4 -1
332 37 2 -0.9201240612436673 -7.846444989908349 3.0623906513285446 2.44224278959871 -2 0 -2
507 57 1 1.852153529116614 -7.9299765555693815 8.46558765601321 4.271431973535659 -3 -5 6
126 14 2 -0.96730761278223 -9.393642977943188 3.8565817434027823 4.403265350409459 -4 6 4
302 34 2 -0.9488230934649562 -9.844835979431277 9.276486704376056 9.425761904163732 -2 -3 5
374 42 2 -0.9508972808986262 -9.156905417012002 8.836981278426421 5.26457196248349 -2 0 -6
4 1 2 -0.9815785097301577 -9.295719152686585 4.627589782268227 6.942862488464701 1 -2 5
36 4 2 -0.9119608034007038 -9.50847864842477 4.3759085772646475 9.508733862442407 3 2 2
260 29 2 -1.036596204685591 -9.574214938509604 6.855829173159687 8.37452329695378 -1 -1 2
425 48 1 1.881042196354956 -10.226059259995008 4.230701990703589 5.716858936069631 -5 3 -1
354 40 1 1.745230314737209 -10.677236038430484 9.249688898689918 5.631093733948265 0 4 -1
242 27 2 -0.9334763038932989 -10.64554262161557 6.481617636689218 3.042061674814835 -3 0 3
436 49 2 -0.8613061005455012 -11.059148664263686 8.900990152358368 7.205659570762122 -2 -3 11
110 13 1 1.874836567253982 -10.53969998077864 8.124526348222151 8.528274961651933 2 3 -5
179 20 2 -0.955646467247955 -10.759096164378672 4.271631080993365 1.7452744779371177 2 1 -5
16 2 2 -0.9134505031433988 -11.145679208902449 2.961735606580733 5.973813959838582 0 7 -2
268 30 2 -0.9472022777047447 -11.115578547985498 5.549258247359517 5.411788438514925 5 2 4
574 64 2 -0.8526573554776977 -11.589122322706512 8.224319465562472 4.819714260701818 2 -1 0
146 17 1 1.747237879045805 -11.651319571117073 6.644332656819203 4.319880348301298 3 1 -7
424 48 1 1.804674428439247 -11.84549327364428 3.0836126362605585 2.081508915564394 -3 -8 -1
214 24 2 -0.9352047109094532 -11.898811685690024 7.667499062846913 9.283342016050732 8 -1 6
257 29 2 -0.9204274594853099 -11.625060370358943 2.3569998392435307 3.5200285196698333 -8 0 -2
48 6 1 1.769473057609334 -10.603036893316508 5.838289395130128 1.5849859678466025 -1 7 1
187 21 2 -1.020133468965644 -6.677674523288315 6.4636641364326755 1.6059235665142186 0 1 4
64 8 1 1.642855283311008 -7.997269329704102 7.329794988992293 1.452148019028661 6 -5 -7
419 47 2 -1.055479541181776 -5.573544639876879 7.03024820629666 8.74629387960604 -8 -1 -1
315 35 2 -0.9402770421484051 -4.80690003726388 5.9484380750472665 4.374168455210735 9 -2 0
402 45 2 -1.004875211506864 -5.0233711291790755 4.40010997906824 8.579418285551135 4 4 -3
231 26 2 -0.9283827836313241 -4.382408302163574 9.66483807178657 5.7864788639113645 2 1 6
377 42 2 -0.9652824884146746 -4.000953796772945 8.74368165612822 3.3501443592251205 -4 5 -6
46 6 1 2.017876774419903 -3.8077003823036826 3.5001498383367187 9.206251082877639 0 -2 4
60 7 2 -0.9722671328472092 -4.1822300004147355 2.9641764220477524 3.400697080845401 5 -1 -4
366 41 2 -0.8852104083510246 -3.516637726998825 4.243976055095364 5.617317860777032 -1 2 3
75 9 1 1.797062633587887 -3.2879034831670158 5.696661020205816 4.955288856845889 -2 -3 3
352 40 1 1.788830571173183 -3.6040435989959985 2.788492279080141 4.857762389227831 -1 -9 6
300 34 1 1.966390360520606 -3.5994205999088393 3.5083620471660435 2.01471710115809 6 -2 -6
199 23 1 1.893579708201137 -3.733423497611156 8.591668241791407 1.7533611071636184 -2 -2 -1
360 40 2 -0.9749096723527929 -2.2064229401109543 5.56060782945827 3.8033672436075725 1 -2 0
118 14 1 1.900353557532723 -3.4790356891101997 9.725229742917449 4.507651045805373 4 -2 -1
364 41 2 -0.9174124123130056 -3.299928285693385 9.614723607770502 8.182197405083244 -5 -5 -1
175 20 2 -0.8904656318249703 -2.8323112468019147 6.822564506979941 6.083681007800328 3 -4 -4
474 53 2 -0.9526820202478236 -2.077893646683851 9.0985969635666 5.015874805441234 2 -5 -1
220 25 2 -0.9709723247659653 -2.427725929730613 4.213660721022362 8.772374619644772 -6 -3 4
38 5 1 1.811489881898703 -1.9384119104126771 8.81809775261474 8.69704790510876 -2 8 -4
401 45 2 -0.8955670450684352 -2.452456798266171 7.585219901684552 9.625744205972293 -2 -1 -6
408 46 1 1.888425660076716 -1.0982462126607544 5.19022518402008 2.6907855375360645 -1 2 5
470 53 1 1.827092904455595 -1.5609959314930109 7.884752220895233 5.922000959256918 -4 4 1
314 35 2 -0.9046587426662291 -1.0891601376891291 8.41087864754429 7.363463973718425 6 1 7
201 23 1 1.929365744391075 -0.8996601190841016 3.959622325754081 8.390890232356432 -2 3 2
168 19 2 -0.9101186807971041 -1.0886214162462036 9.778846152218614 9.643432587332256 2 4 0
484 54 2 -0.9151113646929813 -0.8213928242515287 3.2038633373214225 6.938985457225289 -4 1 6
40 5 2 -1.0042994243038 -0.345531878419445 3.090038001269626 9.573234032338052 4 -1 6
324 36 2 -0.9478193949367821 0.32129628857036785 8.955661853002795 2.1773568117648203 2 -1 0
476 53 2 -0.9705900178618242 0.132006419644771 5.186673173837544 8.187522176734 1 7 0
411 46 2 -0.9712120832362524 -0.30527594063573993 7.1828129364080615 5.301145223506314 6 -8 -7
239 27 2 -0.8865090867049199 0.2558948575208131 4.547634171399413 3.3768839347896997 4 5 6
123 14 2 -0.9213424821188234 -2.1159001472852665 4.174364477391241 1.94211353621065 1 -2 2
50 6 2 -0.972158793864021 -0.7154631850873265 6.523510047495048 1.814716412783736 2 2 -6
380 43 1 1.965910502113384 -4.522350639978349 10.206962534467447 7.3568406395462915 2 -5 -1
375 42 2 -0.9653161220421881 -4.617066730243614 4.619924582979005 1.5288579674660014 3 9 3
228 26 1 1.961484223753254 1.601256054231449 9.909578862774318 1.9425130086457032 5 -1 7
553 62 2 -1.009282555771443 1.729824136245794 6.604879391809759 6.741482074794985 -1 5 0
498 56 1 1.99964407283353 1.3217210205830376 7.133422653559064 5.300969113192112 2 5 4
180 20 2 -0.9641106210630507 1.7875472875181941 8.676374796969688 5.310282933979792 7 -1 5
278 31 2 -1.040959268669894 1.3772786758049982 7.082249635786198 9.303319260438245 1 7 4
236 27 1 2.086595011224246 1.532671183383009 5.973536213224349 8.165802408239683 2 1 -1
256 29 2 -0.9507696727819077 1.9048956072458676 6.252891689982313 4.073409380599544 2 -1 -3
173 20 1 1.876863382552088 1.8781322286508377 4.808217578978615 3.3709402675128617 5 -7 3
422 47 2 -1.038335639511506 2.715407928624181 5.003145614638029 8.48472266179185 0 -1 -2
27 3 2 -0.9008433894186375 2.4828546372301012 2.6231576830902563 9.303510614173607 6 11 0
493 55 2 -0.8548998861260448 2.8018917939154697 3.7005547746130105 4.245967612510384 -4 1 1
550 62 1 2.06247771498175 3.211104088407753 4.034554148493587 9.63856651084708 -5 1 -9
373 42 2 -0.9212863137499628 2.5819515008112823 4.82711339413788 1.9547577270145449 -3 3 0
420 47 2 -0.9067372565645808 3.4740489347357144 8.361628193499918 9.541428945963261 -1 -4 2
311 35 2 -0.9951196118792598 5.585076210621674 8.269814861637549 4.744898904707318 0 -6 0
289 33 1 1.984203338822293 6.088294894905063 8.65901851293688 3.3246335242095544 2 -4 -1
57 7 1 1.930615066881361 5.812184855500243 8.023895451200396 6.311417170211599 3 5 -1
558 62 2 -1.041781783714118 4.747683890661184 3.8034784976500235 9.73022360396775 3 2 -4
131 15 2 -0.925886239101242 4.67740896048654 4.232506871211497 5.855032280942137 4 4 1
111 13 1 1.821908256918826 3.9289095048099103 9.517200097373888 8.466599122339824 0 -3 5
381 43 1 2.073210013580504 6.244983580269805 3.9391234430647213 9.302239414491712 -2 -1 -5
107 12 2 -0.9588955015044023 5.541147297499803 6.527250732700706 6.795038044260264 -1 -1 -2
227 26 1 1.845775979073128 4.087366511355901 2.9768584679639303 4.950065847380396 1 2 0
35 4 2 -0.9593047284138477 5.039418731242959 9.211727823317853 2.241441093610189 5 4 2
501 56 2 -0.9096968504774934 4.756490663923193 8.897403960789163 7.1996115941372905 -5 7 1
273 31 1 1.997781304129215 5.925009478080883 5.025015656237404 6.467919051877307 -2 -8 6
13 2 2 -1.076563707344224 6.28864940912578 4.2592834430834845 7.788801164661835 -1 -4 -2
464 52 2 -0.9199225460220156 5.234774423215251 5.299805523884162 1.836524333413075 -5 2 3
446 50 2 -0.9246745508344868 6.661866781382274 7.4102330369656375 2.43392429701377 0 -1 3
216 24 2 -0.933636223473129 7.013689041540433 2.488039247817507 9.502015484666103 -6 7 -7
186 21 2 -0.9212105839134141 5.319221162171958 2.5214324506610684 3.989850995879156 -7 -1 -4
503 56 2 -0.9763917809501309 6.9848078528328 4.964101090716844 10.230878381081784 -7 -4 -2
163 19 1 2.010008232713517 2.0541039359665962 10.202726447382322 4.913307187993256 1 -1 0
439 49 2 -0.9945654385028071 2.1823430424461385 10.13752523933562 3.3739525839950346 -7 1 1
5 1 2 -0.9487565156504154 7.221739178121686 5.222964577428181 5.5553801942730665 4 9 -1
382 43 2 -0.929423584470341 7.416654101248563 8.071113466112555 6.577820416167904 -5 5 -5
477 53 2 -0.9388202544601525 7.289710005570564 9.728654384983365 3.4832305819128266 2 8 3
91 11 1 1.863079470813617 8.597825850472388 7.688200323773378 7.653892813153337 7 3 5
370 42 1 1.762346496456446 8.432846973735172 4.437208319338373 4.740616619809414 4 0 5
112 13 2 -0.9909509037403603 7.989928557607035 6.725758401239544 8.733256533822477 -7 5 -7
320 36 2 -0.9332996207189325 7.726060592147997 3.259872372562171 3.912085632269046 -8 -1 -5
284 32 2 -0.8885266411576218 7.835868089987789 5.173114880183267 1.7052628787258433 1 0 -1
162 18 2 -0.9073251991731615 9.138173530268189 5.493402220912742 3.779569291312688 1 0 -5
45 5 2 -0.9272436195111839 9.185693151705811 9.101328628346735 8.29351329029216 -2 -3 -5
171 19 2 -0.8706969233904893 9.526247309920754 3.6434711454234163 5.688630667337091 3 -2 3
418 47 2 -0.9612333050056726 9.647628270513133 2.8045341324192172 9.367404913749468 -5 2 1
570 64 1 1.865282268664266 9.297619164827827 5.658136276654561 2.211625669163482 -6 -4 0
170 19 2 -0.8876809131029142 10.002951264059208 7.107206200692609 7.004520180922227 -5 -7 -3
296 33 2 -1.001639040330952 11.395854280410818 5.483934083413107 5.4634709461364395 -9 -4 -4
136 16 1 1.846405314618688 11.470464445976129 6.726398588313773 6.41256666542559 -4 0 2
479 54 1 1.752999158648321 11.130219684627113 3.940423150360817 5.683845921683366 0 -2 1
232 26 2 -0.8906844831862123 11.777219542020758 4.2986041587630295 9.749377569666434 -4 -2 0
405 45 2 -0.8625449953245001 12.199177149315199 7.856796253432617 5.496973609983389 5 -2 -3
357 40 2 -0.8540852742297995 12.228194097891715 6.161285360361402 7.751495738677556 2 4 5
487 55 1 1.653805554992963 12.380748395363616 4.627138380805287 8.251426595392825 4 6 4
104 12 2 -0.8969181525409522 11.594424230213212 3.6202257389986965 7.168630274311611 0 -1 4
468 52 2 -0.8088656923328015 11.975570282915326 3.0593339337468453 4.636318008496679 6 -3 9
295 33 2 -0.8705234377983239 11.959813894264995 8.856722559274598 2.9117303009384363 -6 1 2
155 18 1 1.67183410636309 12.934799576866974 8.606156504998026 4.206098802501478 -4 -1 0
43 5 2 -0.9152690688068265 9.552245777128766 7.19509381077212 1.8475463529503782 -6 3 -5
492 55 2 -0.9603384915609452 10.428757537399084 4.715026120516052 1.6035940017707762 4 0 -2
549 61 2 -0.8566694091281186 13.387533281239213 10.141966417499408 4.617332920194274 1 2 2
241 27 2 -0.9704275945107178 11.671274614748851 2.5911653923893785 1.4644075272786172 -3 -7 1
164 19 1 1.836953495279769 7.512571366023474 6.476835245715684 10.236593388394986 -8 7 -1
84 10 1 0.932014068233485 13.51917411543013 3.098024783315226 4.267603223599455 6 -3 3
531 59 2 -0.8598844553744682 13.878413854197452 4.005810151064232 8.084366071338225 2 4 5
509 57 2 -0.8511727666488667 14.204095795694895 7.844227459896006 3.547264239179177 -2 4 -3
417 47 1 1.2328143861064 14.6605456724285 7.50719721352657 2.0305280389172577 1 3 5
331 37 2 -0.4718548049459881 14.765280608238823 5.9592448332053465 1.5755593084669353 -3 1 -3
69 8 2 -0.5083120449366211 15.839360599711783 2.496911167002285 7.656127509772172 3 1 -3
525 59 1 1.633976049428757 14.377365504283267 2.475713042343548 8.2834182924152 1 -6 2
59 7 2 -0.3221557283556703 29.46131103051661 4.488979409062585 4.164551718161336 -5 -1 3
49 6 2 -0.340332523224002 29.41864830347201 5.3484198010551465 3.037510532195386 1 -3 0
237 27 1 1.46027954001501 30.84531161408023 4.815950079493881 3.384403074160705 -8 4 4
158 18 2 -0.821823463521778 31.69854692514612 6.201897167146553 3.8976582122306382 7 4 -4
349 39 2 -0.903397398109083 31.607865149620814 3.813837292548617 2.3880943589721286 -6 4 6
197 22 2 -0.973023218324319 -7.830679886591629 17.90833233192208 4.76328776963534 2 -1 6
29 4 1 1.860819259011882 -5.9741161106351175 14.056109071095491 5.207559534859723 -4 4 -2
140 16 2 -0.9817759884815062 -5.862744439374712 14.044258366690688 6.758676542901986 -4 1 6
221 25 2 -0.8669804323064662 -6.596355963079245 12.71609025371345 4.464470922314232 0 -3 1
224 25 2 -0.9299792903786178 -6.140248343333433 11.151014370415016 2.265039397343837 0 -1 0
86 10 2 -0.9266220160749132 -6.811127780211968 15.358068977573716 4.700777748842537 -7 8 2
196 22 2 -0.9576156598578156 -6.890163316737438 12.596685335582077 8.482250276367466 4 6 -1
344 39 1 1.693051480131146 -7.025795351417191 11.332444581712345 3.5838664346420743 1 0 3
116 13 2 -0.9560192389570704 -7.378148243082773 16.43521317883854 9.717529755477473 2 0 6
76 9 2 -0.8708061344507978 -7.505911063968325 16.611038768807227 7.05576720027193 4 4 -4
301 34 2 -0.9437194226122984 -8.634116941015915 14.560386170599028 8.246310352505454 -2 -2 1
165 19 1 1.791633171334369 -8.428599961434495 12.96781287876027 8.06885561576562 2 -1 3
192 22 1 1.858674979669052 -7.749160591087765 16.44297591483748 5.428549437409057 2 3 2
203 23 2 -0.9047512512684992 -9.484935077515082 12.364875432109766 9.168854243545752 4 -4 2
557 62 2 -0.8867143786869848 -8.548416218405803 11.63583598886909 3.001666140593902 0 -1 3
271 31 1 1.832378950057194 -8.289769593913629 16.134692277646867 8.417850602294186 5 -2 -4
347 39 2 -0.925036171967082 -8.896820080837148 12.34592805635852 6.674321605262945 4 -4 -5
122 14 2 -0.9541724561057791 -10.595728681108827 14.824528544406096 3.3595899039623776 -4 -1 0
443 50 1 1.429161996900649 -10.324040756767769 12.2361563173177 5.933125679766417 4 3 2
33 4 2 -0.8754264131044764 -9.693952602126812 16.892997155128242 8.760852277547894 1 -3 -12
494 55 2 -0.9302162781815232 -9.2097948815174 15.713658881218546 5.433382404302978 -1 -4 -5
182 21 1 1.768551061883521 -10.650447461272691 15.103552131355809 4.968819964759103 -4 -2 3
430 48 2 -0.9036457848085184 -10.630415905582774 12.795479866991617 1.6681574081581025 -2 1 5
485 54 2 -0.8171080736655929 -11.030548446746428 10.888147539965452 5.440917100815554 -1 -1 -2
490 55 2 -0.847032585342959 -10.966709702989636 13.683834247910877 5.755711319072066 4 -8 0
92 11 1 1.350895106525398 -10.892504512607891 16.89554805147563 9.767708253071282 0 -2 0
93 11 1 1.752656314405869 -11.206317333285476 14.296222482799177 2.0106854890563457 -1 0 -1
275 31 2 -0.8691173630314929 -11.754043371268141 16.31290136912214 5.199449816113958 0 3 1
390 44 1 1.712838872483415 -11.993158252500908 17.87084477621477 5.0386189587537045 6 0 -1
325 37 1 1.79404597468016 -9.242586176088047 11.984841141137867 1.5201363645804506 -3 8 2
576 64 2 -0.9652347269613634 -6.879989487607556 16.784638802811045 1.442843332137997 -2 4 -3
249 28 2 -0.9634631682657845 -2.143564223977881 18.273493240041738 4.428372617963259 2 -1 -4
3 1 1 1.93013142453757 -5.481714812000215 12.993114120315262 7.922412964011648 5 -7 -4
575 64 2 -0.8824391759888696 -4.436062425319265 14.166606732534596 4.708046179404649 4 4 -5
250 28 2 -0.8588448905524705 -4.558129937794256 13.565551981882361 9.136130706914747 -3 -2 5
386 43 2 -0.9809801996874141 -4.750362725565582 11.795296363297215 7.21747521214255 4 -1 -4
94 11 2 -0.9221548225553234 -4.759406037946596 15.739292949755171 2.594450563495467 6 1 0
212 24 2 -0.9698083333509467 -3.734075724203585 18.08608665885955 8.426848901065833 -3 -2 -6
189 21 2 -0.9031049541680219 -4.138830401502939 17.620463586122387 5.914422849819928 -2 1 0
299 34 1 1.854062464074435 -3.3888816080862174 17.071535567985617 7.253365379797644 3 -1 2
307 35 1 1.809172926119319 -3.709796571482661 14.910173574405185 3.4630060503767117 0 0 -2
274 31 2 -0.8675020714531875 -3.7838484516196083 15.57988359883872 7.781178083229067 11 2 1
350 39 2 -0.8680089680249625 -3.2006324304717086 13.588728416891446 2.632856376197333 -6 1 4
53 6 2 -0.9250103108678592 -2.3689884078524397 15.770189345395924 3.7929955181741 -1 -4 -2
156 18 1 1.807877012800711 -2.429615765997342 12.212803300857587 2.991219826782012 1 4 -5
144 16 2 -0.9716669646033819 -3.189938386210269 11.221195450385977 3.961174902105692 1 1 6
190 22 1 1.795409632352489 -3.2962482984459562 14.602846517772843 8.999532455782978 5 1 -3
554 62 2 -0.9665391634130908 -1.8154986261622312 16.87014169593517 7.122248352897288 3 -7 -2
391 44 2 -0.8660100920672326 -2.0279866083803473 13.668915345279647 8.60368979344149 -3 3 -7
208 24 1 1.816422262584145 -1.2937749029600827 17.04722014434663 3.8491777079518643 2 2 2
211 24 2 -0.8990881687001026 -0.9669500876186969 12.761727257027609 6.387978822658565 3 1 2
70 8 2 -0.899807760317018 -0.9553652906213923 12.609878289572372 3.717225916766429 5 -2 8
442 50 1 1.808626205527084 -0.5816058206981971 13.248955849308736 7.887610384690555 0 -1 -3
523 59 1 1.793747562044426 -0.4738818913194205 17.638408625242178 6.597919708625567 -2 -2 -2
106 12 2 -0.8570773934641844 -0.19947718282860727 17.034632646684795 5.076116289638774 -2 8 -4
448 50 2 -0.969191808794919 -0.8184970774775397 17.444537862518086 2.3992217662801085 -2 -12 6
166 19 2 -0.9663562978002024 0.23836776458050934 14.626593149019754 7.844490366433835 4 -5 3
14 2 2 -0.8917131854003231 0.4460590938250757 12.070686762847597 8.458004277962335 -3 1 2
506 57 1 1.932198689332597 -0.09321109641441616 12.510078598453298 5.037391083512755 -2 -2 0
500 56 2 -0.8458790098506921 -2.0230247321473165 11.561417856799117 1.533606505635981 4 -7 -3
365 41 2 -0.9612135535111174 0.7365516095211486 17.18954075438539 7.505362877428153 1 0 -4
438 49 2 -1.02102505632743 0.7921357548855337 11.19139742427468 5.0643757960169165 4 -4 -2
226 26 1 1.91645391225116 1.3273875637207677 15.773141178746393 7.980237765532451 3 2 0
414 46 2 -0.9509344201050165 0.8567762937388057 13.774636296729874 5.080145999797628 8 1 -1
71 8 2 -0.9060120553921119 1.7913541595323608 15.972514017024729 9.49985281910441 7 -2 -6
65 8 1 1.900236042196481 2.0514582289747736 11.834745078247188 8.380058596775655 4 -4 -6
449 50 2 -0.9005767998136044 1.5687919790565985 13.902880991504531 2.682764562177528 -5 2 -2
335 38 1 1.866577818976833 2.1087609727057828 14.22571160025128 4.170203773119417 2 7 0
176 20 2 -0.9531115840299624 2.700085520516751 15.501829809116366 7.206232445368408 5 -2 -5
26 3 2 -0.9969151599829243 2.5679692773186478 12.214884647460888 9.850850086743744 -1 3 -5
517 58 2 -0.9561797689265101 2.5435432525326735 10.327931134817277 8.164178990840096 -4 -4 2
413 46 2 -0.9341721258946964 2.609582057468449 15.695701857038138 4.615739713355874 3 2 1
410 46 2 -0.9888960269163949 2.673194799995507 12.681364155746966 7.1925094282092985 4 -3 3
277 31 2 -0.9937729668154434 4.946859884837666 10.498884698442605 9.218932444724413 -2 2 -6
526 59 2 -0.9089472167498961 3.405370512264895 10.935336592709028 5.449679607986621 4 -7 2
337 38 2 -0.951782905195954 3.2765064237816173 13.216564109646871 4.599736287943129 -6 1 -1
453 51 1 1.770810181898027 3.658879566499939 12.456149633753807 5.923348401727846 -6 0 3
336 38 1 1.856241722785321 3.4247831169666956 16.14675276776735 5.90876543704941 -1 -5 -3
421 47 2 -0.9292380113794972 3.6331007805389888 17.726042671080855 5.861434535439639 -1 -3 3
252 28 2 -0.9358714292275359 4.899571155495087 15.535425028528643 6.088246645539988 3 -6 -1
34 4 2 -0.9800822494776638 5.474548481927007 14.613586097643715 8.644170500186608 -5 4 -5
540 60 2 -0.8826146941113797 4.841769432959344 14.542797902713051 2.2549873859487826 -1 9 13
431 48 2 -0.8602375032588693 5.134333156912737 12.950141079337637 6.547854076775485 -2 -6 7
460 52 1 1.721461482131255 6.06802880323068 13.520790400037328 1.983062513506488 5 0 -3
11 2 1 1.8131728958108 5.629892960348927 14.464745234182836 7.057164669815658 3 7 -3
496 56 1 1.932560209581305 6.363577424510359 11.091406874064013 9.67832889989246 -4 0 -4
471 53 1 1.894600223855907 6.840621872365384 17.98746200721704 4.256548018047887 1 0 -3
416 47 1 1.956792180643698 5.6603292736447255 14.096111379406448 10.128314574046364 -1 3 -9
491 55 2 -0.8595643950800521 6.282734614042203 12.11262551368036 2.862619542362054 -6 1 0
499 56 2 -0.8605755196868442 2.6271489000284802 15.845748992105083 1.6358176109132727 3 -8 1
348 39 2 -0.9611309262045939 6.384777122572769 12.632971734817875 10.121048224058635 -4 1 3
456 51 2 -1.012809804758215 7.122414945867233 17.36976755125201 5.679168483956726 -4 -3 3
167 19 2 -0.9164271524508768 7.125518823735524 14.878460675440433 6.657807229680634 -4 3 1
12 2 1 1.959232057030522 7.924873232529572 16.259027821887713 6.466176893488796 -2 2 1
403 45 2 -0.8945854144490293 7.344177314923909 16.847813170204482 3.152881532285812 -2 -2 -5
527 59 2 -0.9576308661036457 7.326717623877078 10.964629418589926 8.429528006536579 -4 -1 0
58 7 2 -0.9375354500032013 8.440777533963777 16.98577457743161 7.859837702361114 2 1 1
200 23 1 1.908982725372692 8.156787007651873 15.843342614009405 2.2000748942828676 0 3 -2
327 37 1 1.845001183913505 7.65721546621141 11.229769394775445 3.103618656642589 1 0 6
372 42 1 1.988202800829563 8.444198587832682 17.752450209506613 9.220516389197869 5 5 -2
482 54 2 -0.8755816152337419 7.487573114373296 14.39234530402884 2.2605999835313337 9 6 3
441 49 2 -0.9371024706452318 8.506379578237274 11.157064055596393 1.69986770653061 -1 0 -3
67 8 2 -0.9064696395010462 9.191553325155782 15.908095545651559 5.531531945889161 -3 -3 -5
384 43 2 -0.9018581347189276 8.374663024458899 12.059870401703847 4.256030708131184 7 -1 2
426 48 1 1.894715575115838 8.874571146616118 10.635382871292052 8.064304854207899 0 -6 6
17 2 2 -0.4844841667425286 12.125666475436939 10.357118169897241 9.600613979204855 1 -1 4
303 34 2 -0.9337834840390598 9.21721046749135 11.023391214706383 6.531954992595457 6 -1 4
533 60 1 1.878832314272888 9.630909756429032 11.98377589881001 5.333733451022704 10 -7 3
80 9 2 -0.9704498036852234 9.755039339473898 15.928304614694852 2.1963326656974274 -7 1 4
191 22 1 1.827382931920618 10.584584379713716 14.99852439382878 5.545916538182625 -3 -1 -3
304 34 2 -0.883123795367762 10.053594229456882 13.458206113963719 5.9115057967606335 6 3 0
238 27 2 -0.9819175470556293 11.089430697863017 14.835906535790016 4.033829978636643 3 -6 1
235 27 1 1.709931382072212 11.120358744161466 15.266801733966481 2.5610106205612695 -6 6 -6
103 12 2 -0.9305234500548019 9.732047895262946 11.49757647384887 9.109154188247647 4 7 -8
400 45 2 -0.9207978052727017 12.352311763249768 16.182499116841765 2.214256507064385 2 4 4
72 8 2 -0.9499491833086374 11.588695618396839 15.616146763712656 6.648813105536792 0 -3 -4
423 47 2 -0.9631997476809941 10.959201561215382 11.330387026773284 4.709233459203684 -1 6 6
412 46 2 -0.9287034711662355 12.782943915756208 15.053290329230936 8.951119285575611 2 -1 -3
561 63 1 1.805599165649295 12.942819235999655 17.664612518609708 1.698766444725784 -2 2 2
265 30 2 -0.8927261367543055 11.768419396140503 12.838733431850578 9.975692019492792 -1 2 1
127 15 1 1.779007852820124 11.021948311193734 11.417660397100107 10.060428300474873 1 9 3
451 51 1 1.767588051540448 12.518379032003898 11.525849304073592 4.677097563976147 4 -1 2
461 52 1 1.448790669534351 12.813855924335096 12.150630502746967 1.6463675624601717 1 -9 3
2 1 1 1.798561693672002 12.930227399134028 15.700978106091402 7.485051625046714 0 1 0
532 60 1 1.668579385799458 13.143318317654876 13.585549111007726 9.576246351413014 5 0 -3
157 18 2 -0.9006281516450774 12.931649655307 12.387805644488608 5.999936012669864 -3 -2 1
188 21 2 -0.8521915959919932 12.954958707284527 12.239125281908311 3.2401959539682688 -1 0 1
473 53 2 -0.9101900660532525 8.718843486329542 16.50326019281528 10.156162768755292 -2 -2 1
387 43 2 -0.7480436275535501 13.878157921107311 18.271201101908687 2.8772380290658797 2 3 -9
385 43 2 -0.8552889613572443 14.325603189963557 18.045054977431757 9.870194481428753 -4 1 1
555 62 2 -0.882408290271631 13.511380032023444 17.22339138606865 7.574657408597314 -2 -4 4
495 55 2 -0.8307227246210049 13.96701926691515 14.702841127738271 6.729960334135248 -1 5 6
282 32 1 1.604838578915309 14.144306447461089 13.00246821148258 6.838603131566918 -1 2 -2
132 15 2 -0.841436891843764 14.032564264434145 12.781041423533779 8.485994506612968 -2 -1 -3
465 52 2 -0.4675911842463577 15.560075996099501 12.594290215647096 6.194934049838103 9 -3 8
77 9 2 -0.415749204444036 32.59995846616099 16.13339254471826 9.36522487551743 -4 -7 -9
342 38 2 -0.4940409119707171 31.338749689271175 18.208099162052285 5.505106700663464 -6 -4 5
169 19 2 -0.4613407189077049 32.00671517781905 14.352581900770403 2.178295441632178 -3 -4 3
542 61 1 1.846075519497678 -8.745228996732793 9.350514836677993 10.575910071924358 0 -1 -1
321 36 2 -1.045820263578829 -5.977037908008447 4.098324227969148 12.202266737496473 4 0 2
328 37 2 -1.023568512221473 -6.096484983850355 6.67670162727708 11.725297299269107 6 3 -6
41 5 2 -0.9594984664954632 -6.049132089036277 9.048182256653691 15.612138625423393 0 -5 8
455 51 2 -0.9671777540293004 -6.248212928762155 2.730552612756528 15.275165066634031 8 6 1
338 38 2 -0.8273148698940311 -7.1928041470334625 8.873701635111312 18.014486366918664 -1 -1 -2
100 12 1 2.111216719417221 -6.8380404755969675 5.439620982574983 12.316448792458377 -2 6 -2
552 62 1 1.967039632892587 -7.535171402280855 3.2946220702775126 16.08021520565557 -4 0 7
472 53 2 -1.03808978841244 -7.44005794471797 2.7870781175910184 17.56270789105515 -7 3 -3
396 44 2 -1.016446940720877 -7.038303332947461 5.891633307283558 13.796908310331034 -1 -7 8
142 16 2 -0.9339888047554159 -7.66155916567111 4.896278089185113 16.032275381476396 -1 7 -6
316 36 1 1.749925782317101 -7.4383002382664625 8.776452820957289 16.303331594975024 5 -4 -1
160 18 2 -0.9468782191300289 -8.088019636631063 7.410408016356207 15.822563541939267 -6 -1 0
229 26 2 -1.001343513798301 -8.222507955536372 5.101431809323316 11.647062225391368 -3 5 0
108 12 2 -0.854594773006218 -8.550269453935849 9.941056075792059 15.970734687873982 4 0 3
371 42 1 1.900118609894941 -8.107783946079568 6.013006571476552 14.992423505443522 -2 -3 3
15 2 2 -0.9527446996850605 -8.84662405039965 2.70030358383469 15.40158438218452 -5 0 4
292 33 2 -0.9527262740461929 -9.542933514159166 5.5858910728546665 14.334049180088664 4 6 -3
262 30 1 1.82004839186727 -9.597400984096982 4.407183302755556 11.191876582679885 2 0 -1
267 30 2 -0.9691757530062801 -9.80365425560765 3.027402977633771 11.971323050273172 -10 2 3
538 60 2 -0.8726062296861683 -9.264895498109748 6.558844710756029 18.582245795526866 2 7 10
51 6 2 -0.8900759493651466 -9.345851773430244 8.485346750749915 11.87150460025856 0 0 -1
334 38 1 1.758707233798968 -10.742613352589405 8.731665780819188 12.683255963152542 -3 -2 0
310 35 2 -0.945010133042325 -10.870220617602392 5.391378417928172 11.439797405787099 -4 -2 3
440 49 2 -0.9559984664295512 -10.714400116244914 10.254882486071544 13.262416494562958 -1 -3 2
81 9 2 -0.9445605267805501 -10.973768740264251 7.673846597672687 13.895908593086624 2 -3 3
37 5 1 1.836856216621953 -11.034490038350455 6.117136828678875 14.392313775216163 0 8 -4
204 23 2 -0.8762387447086607 -11.527692348038437 5.784369653259434 15.87928397208773 -1 -6 -5
97 11 2 -0.8315459237618407 -10.938853598199 9.13276747536053 16.721189114028885 -3 -3 -1
356 40 2 -0.8727250389703117 -11.932672396501077 6.291675681916787 18.52040359920462 -3 2 -6
149 17 2 -1.001138428414543 -11.990661867095806 8.643457685743272 11.690140132189244 -4 -3 3
151 17 2 -0.9211238438719517 -2.129854152081144 8.681389542704403 19.039295754582433 1 -7 -4
432 48 2 -0.9526673506344766 -4.181352579229285 7.132284309737391 19.13389389102366 -2 4 2
392 44 2 -0.8781217638731954 -5.098566009713371 8.723716341931002 10.551250964342472 3 -7 1
269 30 2 -1.022123812654618 -4.555217072405675 7.0451920438611 15.024381017721506 4 7 -3
287 32 2 -1.006548192733582 -4.495799631923627 4.45852015359828 15.376330722187936 1 2 -10
101 12 1 1.960236671915024 -4.9190160512979855 7.774326431388587 11.899346674337647 5 -1 2
288 32 2 -1.012685387478731 -5.096368724549876 5.903786971256846 17.209055369384465 -5 4 -4
285 32 2 -0.9709583432063393 -5.213860822438191 8.673989667526035 13.139917866496358 -2 -1 3
569 64 1 1.993283232520735 -4.815068402364629 8.584938716408535 14.719597564309892 9 -2 6
264 30 1 2.007602786061343 -4.899566635567856 2.954433386946997 11.966154567139666 -3 -6 -1