LAMMPS data file via write_data, version 29 Aug 2024, timestep = 5000, units = real

576 atoms
2 atom types

-3.500604464279517 24.086182175876907 xlo xhi
2.3124412950013946 18.27313641659132 ylo yhi
1.3986991383968626 19.18687857319724 zlo zhi

Atom Type Labels

1 Si
2 O

Masses

1 28.0855
2 15.999

Atoms # full

366 41 2 -0.8860336159297185 0.47414112721291923 4.2064260949841525 5.501379846635326 -1 2 3
470 53 1 1.794969643285326 2.294976160413545 7.954907057224932 5.817064032282497 -4 4 1
315 35 2 -0.9380863727312269 -0.9063171671173209 6.055310082639279 4.266969372124532 9 -2 0
290 33 1 1.940352607899403 -2.4006664357150482 5.90785053060443 4.724049990583405 0 2 -1
474 53 2 -0.9045686239358837 1.8897078193900532 9.223564917657573 4.823671502413949 2 -5 -1
175 20 2 -0.886565514925246 1.0496093948858052 6.9176824083352475 5.886421071577419 3 -4 -4
377 42 2 -0.9684204988546053 -0.0531709628502286 9.07014994252425 3.1097330542599715 -4 5 -6
75 9 1 1.740181704036252 0.5688853326428776 5.731130014316649 4.807337526202817 -2 -3 3
402 45 2 -1.021059979376144 -1.3830955740622515 4.462341959240016 8.413108596512892 4 4 -3
488 55 1 2.026505648030407 -2.300627608078608 5.607398700471849 7.872962231707472 1 1 -1
360 40 2 -0.9522737138825733 1.6453276928541785 5.710160504940185 3.602260156119225 1 -2 0
220 25 2 -1.02186539216045 1.246518246492892 4.172627331201403 8.64557522756 -6 -3 4
408 46 1 1.820580017276914 2.7498975661248375 5.104257230226871 2.5865910337724705 -1 2 5
46 6 1 2.000020925713362 -0.18356933439168177 3.6153811706864953 9.054592978318922 0 -2 4
124 14 2 -1.012018185194599 -2.5560987785803353 5.622768806139394 6.279929077205985 -3 -3 2
210 24 1 1.92763716939389 -2.1557359292461507 8.361375624552982 8.931529595207252 1 -1 -5
38 5 1 1.802579004006186 1.9344050036027385 8.948534686650007 8.629163451405862 -2 8 -4
314 35 2 -0.8650035013865568 2.7714880258524053 8.395817674071502 7.277056211602853 6 1 7
419 47 2 -1.00917396557717 -1.6443090924834194 6.997283382335537 8.324379362155256 -8 -1 -1
306 34 2 -0.9729942926722108 -1.8905516993117804 9.525019937143542 7.896795181682296 -2 0 0
401 45 2 -0.8971947500594945 1.4973201000413514 7.588500638337702 9.431613690409499 -2 -1 -6
118 14 1 1.835420998188381 0.4691800897896732 9.925268925011652 4.376326225181542 4 -2 -1
201 23 1 1.989869189897619 2.8052512455611476 4.105065917339699 8.417500044895153 -2 3 2
364 41 2 -0.9833606923831233 0.7791589965335133 9.823118869073324 8.039335588290232 -5 -5 -1
231 26 2 -0.9282563700089292 -0.4089926729800526 9.686048253236144 5.690710961940149 2 1 6
60 7 2 -0.858083952002795 -0.2946140505323571 3.007015631610924 3.300249796567156 5 -1 -4
352 40 1 1.711271944184661 0.36487702916412834 2.7744380489812155 4.785190585244341 -1 -9 6
168 19 2 -0.8773632560902805 2.957789348183013 9.757826466009044 9.626883207385715 2 4 0
536 60 2 -0.9352493202677618 -2.957743879441071 4.591824257907625 3.881151666005787 1 4 2
123 14 2 -0.8930562173512344 1.8528498995804599 4.004871640986044 1.8232265444191316 1 -2 2
380 43 1 1.887036870203832 -0.5391962019045673 10.169450559628533 7.214909671693643 2 -5 -1
300 34 1 1.761329460353384 0.28048157965553067 3.551490774219909 1.8281225425060443 6 -2 -6
432 48 2 -0.9585682365129436 -1.000099918653179 7.32679016425299 1.7076677644550902 -2 4 3
484 54 2 -0.9009298870037207 3.1949963597414435 3.3367331119756773 7.027447749478273 -4 1 6
249 28 2 -0.915887653699453 1.8995812446596405 2.421151638742961 4.283318869068609 2 0 -4
199 23 1 2.003197069602281 -0.07736382863052738 8.609557239892018 1.6302675152418638 -2 -2 -1
50 6 2 -0.945957670616841 3.183818821748421 6.1589378467098035 1.4565023790991452 2 2 -6
404 45 2 -0.8987183511695847 -3.1912881585068273 7.327657303152627 4.474224830599928 6 -3 4
40 5 2 -1.007016214354505 3.3756045499733514 3.2500910877775513 9.589264202813135 4 -1 6
330 37 2 -0.8044623546262807 -3.483572194965848 10.22027564821904 4.1531448036186625 -2 2 -7
392 44 2 -0.9518172636736316 -1.3120693398519152 8.490875494192245 10.283096087472387 3 -7 1
550 62 1 2.095214039597628 7.027379297966855 3.988293715322805 9.533364365447868 -5 1 -9
311 35 2 -0.9067353047436415 9.254835197731882 8.274911342669125 4.893968660617542 0 -6 0
173 20 1 1.894379424075792 5.670896078332552 4.948276143047962 3.5098154573313316 5 -7 3
228 26 1 1.914441806588458 5.005919624307955 9.64636870546688 2.026759968231301 5 -1 7
464 52 2 -0.9642013457452557 8.915965068113175 5.9874229414428735 2.0867503667398988 -5 2 3
553 62 2 -0.9843251820972926 5.48858317596776 6.740024935972628 6.831875334909546 -1 5 0
289 33 1 1.917529777101202 9.74924077087028 8.861885880581362 3.501103799016738 2 -4 -1
57 7 1 1.861995326579037 9.613872103062155 8.06191769195205 6.5110914330451735 3 5 -1
558 62 2 -1.035422244612207 8.5747225383918 3.965275504421716 9.509913851402487 3 2 -4
131 15 2 -0.9485047487467948 8.459179858176919 4.129069648226675 6.000892057892241 4 4 1
498 56 1 2.040743291527011 5.184809018780756 7.2517800370505725 5.365346859355463 2 5 4
111 13 1 1.875489469460393 7.748556678273184 9.615742405872595 8.627531886993246 0 -3 5
324 36 2 -0.956219350037989 3.7078755013115074 8.657263927365399 2.2097823879579703 2 -1 0
381 43 1 1.842321249981835 10.143902330896946 4.018249407848242 9.358211512611387 -2 -1 -5
422 47 2 -0.9621679862187427 6.23655002507112 4.954567806275364 8.49579341829909 0 -1 -2
273 31 1 1.911767840095302 9.679806697903043 5.058603231984581 6.497903048319779 -2 -8 6
476 53 2 -0.9823913647523431 3.645072587780379 5.448043222383317 8.336364404608007 1 7 0
411 46 2 -0.9827323793565019 3.5919206798740033 7.241390947703693 5.268404299462839 6 -8 -7
180 20 2 -0.9632600182932454 5.721260206226294 8.806797357718448 5.2234465454849595 7 -1 5
107 12 2 -0.9176906013563901 9.208400005344977 6.5406642217236275 6.892143668048171 -1 -1 -2
278 31 2 -0.974247878349061 5.033638706310043 7.207989633515376 9.369656716024892 1 7 4
239 27 2 -0.906686886777379 4.106928194389265 4.56711394035754 3.3616782256046194 4 5 6
227 26 1 1.862515627673349 7.64303956249177 3.0216016922461466 5.163290878442906 1 2 0
493 55 2 -0.8805508991932653 6.376816343192836 3.7280084680685337 4.377379914763841 -4 1 1
256 29 2 -1.021947973505003 5.81214852947349 6.3140735467469495 4.299114730809323 2 -1 -3
373 42 2 -0.9523269181837571 6.584248482515841 4.944258420527323 2.1583106477598655 -3 3 0
35 4 2 -0.9871144057703795 8.610086271451317 9.009970134181877 2.3813134221985797 5 4 2
236 27 1 1.992769429670854 5.094104346250864 6.089753212929705 8.230616923087123 2 1 -1
501 56 2 -0.9179018870446457 8.731305891226844 8.983976262314243 7.4965856913790505 -5 7 1
420 47 2 -0.9300829003777143 7.268298374870794 8.450258972227232 9.608691097881003 -1 -4 2
27 3 2 -0.9959368332830616 6.4166117307775945 2.5222949495333196 9.431557838377257 6 11 0
186 21 2 -0.9307604219433164 8.84413614825957 2.4672218321340784 4.203740856732667 -7 -1 -4
13 2 2 -0.9649478447017018 10.34379943185845 4.452421883554898 7.799476962546657 -1 -4 -2
497 56 1 1.82603425426029 10.402321847774799 6.523417981195555 1.7626194765273873 -1 3 3
570 64 1 1.974832666334921 13.079382679836224 5.513372474504889 2.425643909931493 -6 -4 0
91 11 1 1.953316530021999 12.29945311269074 7.770984115143868 7.834942551179971 7 3 5
162 18 2 -0.9464232496688705 13.016053016888707 5.0670791494681655 3.9547647778111505 1 0 -5
370 42 1 1.902922159458954 11.96227477623073 4.191375337553611 4.797919939501361 4 0 5
170 19 2 -0.9410325056409994 13.428229555711082 6.907970165409903 7.1353854321924866 -5 -7 -3
296 33 2 -0.8991065192868635 15.068090943150422 5.182665435712549 5.82116601001974 -9 -4 -4
405 45 2 -0.8170991095478328 15.925046841957217 7.784050400953109 6.389590733873539 5 -2 -3
136 16 1 1.745509977410025 15.012265191404557 6.513531438850962 6.828259886357891 -4 0 2
357 40 2 -0.8720134317778522 15.764565114442616 5.909935903766264 8.100918955776041 2 4 5
295 33 2 -0.886437783680155 16.137088479348407 8.123671661737522 3.7707513926491827 -6 1 2
45 5 2 -0.9669350047025885 12.973439844393274 9.040037452587336 8.501121960888327 -2 -3 -5
479 54 1 1.816791688334354 14.532260083436244 3.707197974908385 6.154236800166383 0 -2 1
171 19 2 -0.9244671426819843 12.970919867537537 3.5439623161545777 5.878165434440572 3 -2 3
382 43 2 -0.9643781500715031 11.187059370278064 8.208573242053548 6.719311313711551 -5 5 -5
112 13 2 -1.014185305387642 11.487797315201849 7.060390077959858 9.008818826857109 -7 5 -7
59 7 2 -0.8891741475225793 16.363955663161576 4.007204692713301 3.2100358668441826 -5 -1 3
487 55 1 1.716802255122831 15.963505781697398 4.382879846488631 8.62594490874735 4 6 4
104 12 2 -0.8848898503892477 14.942083808977719 3.474509086857192 7.713621078887814 0 -1 4
320 36 2 -0.9816400066826769 11.351916066956202 2.950253100782467 4.038466430132086 -8 -1 -5
43 5 2 -0.9480732798967173 13.575964446866015 7.017800247570693 2.235329503471869 -6 3 -5
55 7 1 1.78486072874455 16.525742610683672 7.948541907941455 2.171360326684068 -2 -2 1
155 18 1 1.802696225128127 16.96793125365513 8.3359888057486 5.16237932653675 -4 -1 0
284 32 2 -0.9609789837941627 11.575172991912199 5.423042967462109 1.8811571449362408 1 0 -1
49 6 2 -0.9329256805410147 16.848294255237086 6.356904384372032 2.0548337642311565 1 -3 0
5 1 2 -1.003529598833614 10.829812054291775 5.117799352075707 5.355971649100354 4 9 -1
446 50 2 -0.9328818516114363 10.702909491512107 7.827066885647207 2.699410396038519 0 -1 3
468 52 2 -0.8562316008223687 15.350790218172312 2.6414127204208495 5.240780684285061 6 -3 9
84 10 1 1.790930853621755 16.536044671567858 2.6685047899454633 4.1354693568601055 6 -3 3
418 47 2 -0.951128752766889 13.421426104982055 2.5703940398423177 9.971688678465087 -5 2 1
492 55 2 -1.007659662925874 13.938736571922265 4.537165691798104 1.5734570919420565 4 0 -2
232 26 2 -0.9432606889061625 15.346638259964289 4.225506816960266 10.136999259142355 -4 -2 0
216 24 2 -0.8808508872851167 10.844334484240877 2.477973661230513 9.534223173290654 -6 7 -7
549 61 2 -0.9470824624590753 17.12367138503346 9.952526791458602 5.27880173070492 1 2 2
477 53 2 -0.9184801768500641 10.428617071750498 10.286940392933252 3.8536627822966034 2 8 3
539 60 2 -0.9391206814015809 17.147926755345644 8.005143167152895 10.26957956900178 -3 -3 -2
198 22 2 -0.9255588782516651 23.520984595314047 8.289806688556542 2.410265325192222 5 -3 0
126 14 2 -1.028455152606243 22.286081606864414 4.02472111922974 4.172888981619309 -5 6 4
342 38 2 -0.8946667339574627 17.92992402694813 2.527699566499169 4.931248808947312 -6 -3 5
302 34 2 -1.002570771924586 21.434368691388443 9.097337832571554 9.07903408040194 -3 -3 5
268 30 2 -0.9127390043087831 20.448551796005255 5.6966477076077116 5.17220962878851 4 2 4
417 47 1 1.704757240631326 19.09896443011013 9.846748731070985 2.7781996682576064 1 3 5
374 42 2 -0.8960562939959086 22.093741740438404 8.738382735345784 4.7108963854991615 -3 0 -6
4 1 2 -0.9393742008694929 22.08549897774428 4.554791047829395 6.665716082556205 0 -2 5
36 4 2 -0.9461321395192545 21.788525568017164 4.3648582729619285 9.325960360723158 2 2 2
237 27 1 1.844427343013352 17.46776520142602 4.953883234628858 2.5011224775212746 -8 4 4
137 16 1 1.938205850654133 22.266476859673418 5.252200686910314 8.083150833808226 1 2 -1
120 14 1 2.011135539836606 23.62268982868686 3.3734022903437695 3.6742306278192527 -5 5 -5
509 57 2 -0.9435453344686829 18.311530791033753 7.490944130372599 5.009799604927298 -2 4 -3
214 24 2 -0.9090867416032847 19.368490739400002 7.588518417259213 8.927224729521233 7 -1 6
331 37 2 -0.5054964003921538 20.35263312436951 9.460898759029938 1.8392283936537486 -3 1 -3
260 29 2 -0.942120746556817 21.52191291127759 6.6997663038706 7.9596974197166475 -2 -1 2
61 7 2 -0.9901298952252594 23.82581574390438 5.462139379509228 8.47124863162343 -7 4 -1
530 59 2 -0.8914372799539958 17.821658479826198 8.935266377780396 2.2036005591420564 1 4 -6
158 18 2 -1.017312209135713 18.39834654684993 5.275758806953384 3.7175104170313213 7 4 -4
436 49 2 -0.9379293737377717 20.44493460612413 8.84817528467099 6.661066570161938 -3 -3 11
574 64 2 -0.9515084113774488 19.629699251006947 9.703539706248112 4.277408127251581 1 -1 0
159 18 2 -0.9788716700702809 23.91078355437015 8.294328892257072 9.459672419979116 1 2 -14
354 40 1 1.87151644664044 20.82331273824778 9.61976574400667 5.31602972655214 -1 4 -1
425 48 1 1.927622554904563 21.25794166750778 4.2892050831647826 5.31262572242187 -6 3 -1
110 13 1 1.908208599452855 20.67368883591459 8.106411534494004 8.102993555191382 1 3 -5
542 61 1 1.885857852647067 22.62730062551276 9.05940585097766 10.108067659067872 -1 -1 -1
16 2 2 -0.9076568210771557 20.448705684510593 2.925491246546117 5.461715735714874 -1 7 -2
242 27 2 -0.8908831026682945 20.022024323631435 6.800576408921848 2.8150639039826917 -4 0 3
332 37 2 -0.9572427642632336 23.5516592946282 2.771541062105424 2.1650611849000745 -3 0 -2
146 17 1 1.775176729923375 19.300702130591098 6.454751411391386 4.2739925414409505 2 1 -7
531 59 2 -0.8881198676466865 17.454889385595656 3.6800985320240787 8.510260399287942 2 4 5
507 57 1 1.787288536620366 23.537149046062936 8.613622793205199 3.941009949770163 -4 -5 6
424 48 1 1.779073360601878 19.723764544452443 3.2976147077600015 1.5292178220519796 -4 -8 -1
257 29 2 -0.9492781955340847 19.837442537937505 2.4543807668374047 2.9105105202452983 -9 0 -2
349 39 2 -0.9651102454371377 18.274962412800043 3.9629919479302114 1.5103532788904863 -6 4 6
179 20 2 -0.8478630905862683 20.830195620355944 4.568199546548119 1.4208824855209503 1 1 -5
391 44 2 -0.9165223250418899 1.7275714306884966 13.458689238112676 8.534440208529702 -3 3 -7
274 31 2 -0.9107108801882362 0.09295168457727021 15.551064848910503 7.657056929575254 11 2 1
156 18 1 1.807353387525247 1.5110120979725394 12.152683962866025 2.720195052088785 1 4 -5
575 64 2 -0.9856696256299751 -0.6109488416758659 14.326298943759376 4.334309517527605 4 4 -5
299 34 1 1.906045246454065 0.27013957335785577 17.109968037116182 7.312948116351664 3 -1 2
554 62 2 -0.9792388202132356 1.828092485154313 17.186513527146765 7.208770979833027 3 -7 -2
3 1 1 1.815929445708706 -1.6656957126570133 12.92260495097533 7.515988276535824 5 -7 -4
250 28 2 -0.8203792688795968 -0.9070679528606185 13.612385036706943 8.803740717348948 -3 -2 5
29 4 1 2.020072532482919 -2.086205149918482 14.12996212884185 4.759616100930041 -4 4 -2
53 6 2 -0.9607966552330742 1.5371745360273392 15.890744315511885 3.7181403605296595 -1 -4 -2
307 35 1 1.94117781531973 0.3783867176255278 14.949517737372044 3.227606803511277 0 0 -2
140 16 2 -0.9691858134981044 -2.0924647221283337 13.897996515115242 6.351263337016388 -4 1 6
144 16 2 -0.9141645959029295 0.5202983564894517 11.430668883490085 3.8449044999474933 1 1 6
386 43 2 -0.9064622897768886 -0.6689836566030429 11.764488801133215 6.974388419775305 4 -1 -4
190 22 1 1.810907627887065 0.5216839197676579 14.419001725322524 8.808998991746515 5 1 -3
350 39 2 -0.8840687511726881 1.046557326318677 13.67943267386891 2.4367848277721045 -6 1 4
208 24 1 1.809388441417545 2.7109858756341554 17.064259744322925 3.9435725560340518 2 2 2
211 24 2 -0.9003997987061061 2.7121683143320894 12.812071891996457 6.210543524010606 3 1 2
94 11 2 -0.9576473889468968 -0.6239723461882276 15.63002605435544 2.1596145721989313 6 1 0
70 8 2 -0.9586336766106827 2.904394673870091 12.248616687609925 3.4802424618648558 5 -2 8
442 50 1 1.892904999597842 3.1096672430982117 13.117252488535836 7.7278086772304855 0 -1 -3
189 21 2 -0.9109319208219741 -0.18716893720850658 17.599022479329005 5.840538130086775 -2 1 0
221 25 2 -0.9231479425392496 -2.624928951691399 12.871700912303012 3.901739765978708 0 -3 1
224 25 2 -0.9302759648994066 -2.4966119336897963 10.909558651284794 1.9230848594125955 0 -1 0
86 10 2 -0.9926308881192467 -2.8931099541892333 15.47398871681612 4.508450264224857 -7 8 2
116 13 2 -0.9515947119879477 -3.022340220974369 16.62090229935277 9.368312588277698 2 0 6
196 22 2 -0.9427545477284119 -3.1257609417426706 12.558814367815089 8.144244887841435 4 6 -1
212 24 2 -0.9702216502457341 -0.2870105313882827 18.0933002637017 8.464376648644164 -3 -2 -6
523 59 1 1.828096846509164 3.327635889960386 17.642584409247217 6.78240237693314 -2 -2 -2
344 39 1 1.769253313561016 -3.2949763320230905 11.541736897756142 3.0872684143467124 1 0 3
576 64 2 -0.9698838575619071 -3.0304405213568195 16.368761100856382 1.423102574744281 -2 4 -3
163 19 1 1.941934467382796 5.830231093470793 10.32703661307923 4.799528622870098 1 -1 0
106 12 2 -0.8997463520846097 3.5728036185241887 16.91317103306133 5.366418326654314 -2 8 -4
448 50 2 -0.9067731451562131 3.6564129655954787 17.248015508265695 2.6559042135787223 -2 -12 6
517 58 2 -0.9492246081580693 6.377623238574955 10.338134200629028 8.151644293916128 -4 -4 2
176 20 2 -1.006387426942201 6.126038830820871 15.497263717784676 7.078294851414896 5 -2 -5
439 49 2 -1.033050286158136 5.661990693809697 10.433514682162013 3.2274534998115874 -7 1 1
226 26 1 1.934662394777154 5.001250733572478 15.60251615599125 8.150027748890755 3 2 0
414 46 2 -0.957946555628383 4.545710922615079 13.76801883492108 4.737652945855016 8 1 -1
277 31 2 -1.03363349641235 8.673619727298696 10.738145677632566 9.288291223025903 -2 2 -6
65 8 1 1.954157304448366 5.751428358653417 11.814364427829446 8.376720122220117 4 -4 -6
413 46 2 -0.9293796877129795 6.505749250457775 15.624768393069289 4.537005378249316 3 2 1
526 59 2 -0.8995388036630766 7.184671051975675 10.892234619701163 5.469586726861262 4 -7 2
73 9 1 1.410801042725774 7.651216822030456 16.11585315444931 1.8866522851113396 -7 1 2
252 28 2 -0.9213707248318128 8.473783211285593 15.567187528270608 6.25774677532913 3 -6 -1
166 19 2 -1.002033012772902 3.9677165054920467 14.446978862724446 7.8430768974390315 4 -5 3
337 38 2 -0.9573572021538044 7.094071257023106 13.240246132468378 4.758134904764928 -6 1 -1
34 4 2 -0.9642621271147789 9.039946039993909 14.398353638103043 8.776277320126496 -5 4 -5
540 60 2 -0.8108853396871533 8.43187767632886 14.739404752284642 2.423712916494668 -1 9 13
71 8 2 -0.8972327545786378 5.744965471268044 15.818431918082325 9.616631829985977 7 -2 -6
496 56 1 2.012855322673807 10.108148094545815 11.083558403446098 9.852397945825949 -4 0 -4
499 56 2 -0.8446699610692827 6.266955798643814 17.007119829914664 1.9331890430922636 3 -8 1
365 41 2 -0.9837949752047048 4.243852286912845 16.99839292175159 7.865933889298963 1 0 -4
453 51 1 1.82271602584704 7.546351050610079 12.38411266486958 6.02986592377876 -6 0 3
431 48 2 -0.9046719762026216 8.921246880555946 12.973061971064222 6.683283212785042 -2 -6 7
491 55 2 -0.8625274524170751 10.214761674624869 12.866641356238134 3.22844642586408 -6 1 0
449 50 2 -0.935699368170353 5.819905673326176 13.99335401658674 2.532615800295812 -5 2 -2
438 49 2 -0.9669878517992511 4.593233161603008 11.18431264672234 5.318209601323119 4 -4 -2
14 2 2 -0.9109930399929569 4.147777257446112 12.007573991377129 8.330949239988769 -3 1 2
335 38 1 1.923253936270592 5.952355342162118 14.150511498396458 4.119962244506667 2 7 0
506 57 1 1.802638529076745 3.639188185836507 12.442633038631563 4.8897253817390895 -2 -2 0
336 38 1 1.852206569078756 7.00956783516491 16.198389838810687 5.979909121130319 -1 -5 -3
421 47 2 -0.9606296848659167 7.134174424943842 17.802568979050694 6.094181213874868 -1 -3 3
26 3 2 -1.015600634101759 6.153834722768041 12.290282294272487 9.833793245255482 -1 3 -5
410 46 2 -0.988781212075466 6.420166491829663 12.548668545514683 7.146573679283469 4 -3 3
460 52 1 1.794359899379631 9.646289619546948 13.798809276286963 1.957867447779136 5 0 -3
11 2 1 1.852955682805133 9.300801687899577 14.48892048821498 7.19512903117566 3 7 -3
154 18 1 1.736935423633063 4.6654669967901 17.169244475782055 1.4124271050217532 0 4 2
72 8 2 -0.9705964368932103 15.391023326161042 15.61954613432193 6.523010993949778 0 -3 -4
191 22 1 1.938481535074102 14.208069469640028 14.915657944213645 5.671922540098508 -3 -1 -3
304 34 2 -0.9653917077857868 13.809963300710697 13.491604054267217 6.250993236929881 6 3 0
67 8 2 -0.9918167846748054 12.876031054718444 15.724170589522547 5.843791508041144 -3 -3 -5
384 43 2 -0.976431928582449 12.292963408072474 11.937520628655705 4.786704841226669 7 -1 2
533 60 1 1.988335994418675 13.583021540570611 11.968490413708267 5.748558146458601 10 -7 3
238 27 2 -0.914335460579462 14.74136039300494 14.642991005323939 4.11454704147144 3 -6 1
12 2 1 1.998518484877973 11.62531501047984 16.254913002252867 6.64261246665609 -2 2 1
58 7 2 -0.9246382429758306 12.259698871841792 17.22139866882421 7.764759636466506 2 1 1
235 27 1 1.833114914767107 14.26808076339478 14.802659731500384 2.546767195909937 -6 6 -6
451 51 1 1.956270640751259 16.480347005861695 11.387402546727717 5.037701295812547 4 -1 2
423 47 2 -0.9878229999727948 14.862494027123708 11.348759563920893 5.028146375169765 -1 6 6
412 46 2 -0.9759339208133719 16.210523309531055 14.983957721840078 8.865518893293252 2 -1 -3
200 23 1 1.961422721571382 11.458751451720602 16.132935790054386 2.2087464311879534 0 3 -2
167 19 2 -0.9569050888450298 10.805270907590794 14.977746938217543 7.142873735167648 -4 3 1
327 37 1 1.814955121500833 11.320674545866034 11.651300929106615 3.5776256101839765 1 0 6
372 42 1 1.886092166095183 12.233575571916976 17.63620058875755 9.330242071527223 5 5 -2
387 43 2 -0.96145970297644 16.522984351987496 17.41930427129201 3.056097057521845 2 3 -9
80 9 2 -0.9778089445624778 12.929845313830151 15.660790395455269 2.6877679305300575 -7 1 4
441 49 2 -0.9157626134134916 12.125851779974086 11.411976264494939 2.1802102321591748 -1 0 -3
103 12 2 -1.004235698155185 13.717983399337845 11.31959903923494 9.554188925459849 4 7 -8
303 34 2 -0.958135765324155 13.40953226707771 11.116337861309255 7.063162007496343 6 -1 4
2 1 1 1.998605654194768 16.63331545496895 15.66257763775721 7.474282627247661 0 1 0
456 51 2 -0.979082678189316 10.595541831451937 17.22432400279113 5.9028827061291524 -4 -3 3
532 60 1 1.98345349018336 16.82967495964307 13.870781688155613 9.820246444759793 5 0 -3
426 48 1 1.963148354630912 12.813223875586965 10.647910097777572 8.484300743776974 0 -6 6
403 45 2 -0.9411154948344008 10.599620373450927 16.44907558451248 3.5066714968564017 -2 -2 -5
527 59 2 -0.96463609122755 11.217951573143562 11.025490878919324 8.727240767811956 -4 -1 0
157 18 2 -0.9672529414253472 17.079476705598665 12.261518629775331 6.24416747890794 -3 -2 1
473 53 2 -0.9050994177830683 12.392602427890171 16.24417259693984 10.106511511482209 -2 -2 1
561 63 1 1.916677754608845 15.927226829914376 17.10002551081431 1.6302070000481648 -2 2 2
400 45 2 -0.9594918823039094 15.366856186283103 15.565703787056496 1.7092308321567746 2 4 4
471 53 1 1.856576516278836 10.31457746694643 17.772523661093736 4.422228636055392 1 0 -3
6 1 2 -0.887376336292568 14.090681969240277 13.456069071811402 1.652657037247833 -2 1 -8
482 54 2 -0.9488473769618642 10.79059091569715 14.886805107011337 1.4925985984197494 9 6 3
265 30 2 -0.9886228238795542 15.594253821370044 12.951154593777979 10.199480937736945 -1 2 1
188 21 2 -0.98786829254549 17.024565055241794 12.19537628680045 3.780999929978118 -1 0 1
555 62 2 -0.9267170246547247 17.223544301711982 17.120583932557143 7.665520992554971 -2 -4 4
76 9 2 -0.9692420223459589 23.993920207875377 16.49599364042824 6.723410253104544 3 4 -4
197 22 2 -0.9844270333179007 23.971910330283357 18.036241167153175 4.564855137335838 1 -1 6
169 19 2 -0.8923742143867275 18.834465319730462 14.015247329216372 2.484291128793569 -3 -4 3
465 52 2 -0.927389051022917 19.629804535418785 12.715551449704027 6.99341328354466 9 -3 8
282 32 1 1.85570245219725 18.068212411630213 13.074923158598676 7.226191709211937 -1 2 -2
390 44 1 1.751574026079574 19.408206581328493 18.073864363889417 4.476156457084416 5 0 -1
495 55 2 -0.9312764181473093 17.79282042240409 14.682038393495162 7.019888216653421 -1 5 6
182 21 1 1.956092334612537 20.882975335946142 15.427912411110984 4.480546592949665 -5 -2 3
275 31 2 -0.8566693556289996 19.603411717466464 16.452674856573505 4.6941008797961725 -1 3 1
301 34 2 -0.9958621372452263 23.236838414373906 14.762182865991274 8.38975651642101 -3 -2 1
485 54 2 -0.9246294234916496 21.240421289568893 11.198497678421646 5.4205916702606265 -2 -1 -2
165 19 1 1.920093357376957 23.03588270244874 13.220865635514773 8.034470757706835 1 -1 3
122 14 2 -0.9663671421116761 21.050142130773764 15.093691513075871 2.9690785146974377 -5 -1 0
192 22 1 2.004586793206274 23.697692955681134 16.5529721965219 5.164982182693917 1 3 2
93 11 1 1.819171662727553 20.141880378601407 14.522395928810926 1.723787466185862 -2 0 -1
443 50 1 1.900286493100006 20.912115637891738 12.683283918523735 6.044930752252127 3 3 2
203 23 2 -0.8909362688331136 21.953017211232904 12.389870783155022 8.957062974500943 3 -4 2
557 62 2 -0.9054129036748895 22.897077183812208 12.051496974316994 2.3733852632096615 -1 -1 3
271 31 1 1.913294796847376 23.499700523662042 16.32112944359776 8.224742725358402 4 -2 -4
77 9 2 -0.5267592372161268 20.2220962057308 15.460322565413538 8.886981272605581 -4 -7 -9
132 15 2 -0.9090646997154331 17.71915332721671 12.958873661871294 8.823520347062273 -2 -1 -3
490 55 2 -0.9354654115088197 20.596279455283508 13.97575899235951 5.13663156834012 3 -8 0
33 4 2 -0.8872243697415511 22.25584033275201 17.32118629197955 8.59927948213291 0 -3 -12
461 52 1 1.825533454007979 17.91004903037804 12.62459373242839 2.493399710305601 1 -9 3
92 11 1 1.661125129631919 20.73590471163947 16.96420292625871 9.193052634885213 -1 -2 0
347 39 2 -0.9595373083083352 22.33713475390904 13.136571315675386 6.6140209903066935 3 -4 -5
69 8 2 -0.8358618433488479 19.62745574000622 18.005126099011104 8.515031349495882 3 0 -3
494 55 2 -1.040310945948098 22.16499224046209 16.142556947576526 5.038859194912046 -2 -4 -5
564 63 2 -0.9034632643802115 18.934588560751905 11.410429418553683 2.339583591549803 -7 6 4
525 59 1 1.85495991504449 18.031774643956368 18.133893309847107 8.669204870505968 1 -7 2
385 43 2 -0.97228245223988 17.72346109380984 17.717857495960697 10.173513701419155 -4 1 1
269 30 2 -0.9620003922897266 -0.8266778504513668 6.92934857365546 14.777128665276111 4 7 -3
95 11 2 -1.016543979140451 1.3283842240674462 5.886807142150639 16.032039251324687 11 4 -9
287 32 2 -0.9993237200353607 -0.7534327849968867 4.459773319749228 15.666219275147084 1 2 -10
345 39 1 1.843187234061406 1.7245986237517723 7.155171391064577 11.012478863722002 -2 5 -3
83 10 1 2.063811959885943 -0.28280022941178107 5.918276747012168 15.878043034774326 -3 -2 -1
101 12 1 1.945662359437086 -1.1499899662372761 7.639094057964895 11.650929929988921 5 -1 2
288 32 2 -1.00569492124886 -1.052958276405382 6.405707384757454 17.140886447924558 -5 4 -4
195 22 2 -0.9224846314089887 0.2745092322164595 6.88907600780446 11.70121764238521 -6 -5 -3
230 26 2 -0.9620984110651271 2.5608037659301166 5.833487542140714 11.27287763655629 0 -1 3
397 45 1 1.967725115874585 2.6040045096891085 5.20785475442965 15.406562853159436 5 -2 3
285 32 2 -0.8968769034072013 -1.0617298638016934 8.630349342278404 12.912835191369547 -2 -1 3
321 36 2 -1.007864017278946 -2.43438436109944 4.173730962444177 11.67423982658442 4 0 2
152 17 2 -0.9783920159466031 2.3419160674795227 5.0570483331448965 13.85310036047943 0 -3 0
563 63 2 -1.014685566422338 2.5341008133173437 8.358280090830615 11.658509025377503 7 1 0
569 64 1 1.855306797366172 -1.1854758173690092 8.471043817184055 14.498836274538762 9 -2 6
328 37 2 -1.01539500409644 -2.3850898035732 6.7527515529416595 11.989916988944698 6 3 -6
41 5 2 -0.8564277777069956 -2.659124676253231 8.891459249178105 15.039982081243528 0 -5 8
264 30 1 1.930788734021728 -1.3055634970818097 3.0345153647220777 11.800247863856564 -3 -6 -1
524 59 1 1.843103562122374 -1.5335667392549601 6.0570871937533335 18.66197280014903 1 -10 2
281 32 1 1.96297402535552 -0.7871692692387628 3.0012393844626475 14.888738933114931 3 6 -2
369 41 2 -0.869208117598319 0.05477623020775013 9.287512442744855 15.213309130343829 5 -1 0
98 11 2 -0.910690984142869 -0.7032478680121486 9.717635648325224 18.50425551433812 -10 -2 -3
409 46 2 -0.9298260946620035 2.921730716523168 3.775696606444445 16.068277536923233 4 5 3
322 36 2 -0.8980539558729741 -0.64069651907832 3.3284503181922944 13.327100775326109 5 -10 4
521 58 2 -0.9415046021007801 -0.2619984193687497 3.4825829261460255 10.653861160877 4 1 5
100 12 1 2.020661213354507 -3.2631356550712685 5.419109028779589 12.210306970003645 -2 6 -2
516 58 1 1.941206699222127 3.156403652831796 4.93417917542779 12.475758265012848 -6 0 0
151 17 2 -0.9953723652728862 1.4170022755794633 8.185023296430044 18.957267462746962 1 -7 -4
375 42 2 -0.9031071475239971 -0.8364801284862886 4.70867108080826 19.146010483179204 3 9 2
145 17 1 1.899803054425542 2.9227292726414777 7.783713692310673 18.914798971361492 -1 0 8
455 51 2 -0.9682869519142547 -2.3104776162250396 2.6307751115829747 15.03271845119678 8 6 1
463 52 2 -0.9310204207306862 2.962379973487635 3.4047595709366094 12.039588056932024 -1 -4 -2
187 21 2 -0.8460209391459466 -3.1689258877797863 6.097842323194298 18.79408942072395 0 1 3
309 35 1 1.905929980678349 3.262098997863366 2.342348129415592 10.910467256197485 -5 0 -1
202 23 2 -0.910477007714747 0.22123527026216605 2.4489218564867192 18.455037575176846 3 5 3
338 38 2 -0.8315664721531874 -3.4424760316473084 8.760418112760785 17.545343483168686 -1 -1 -2
529 59 2 -0.9881582728899698 6.190918432458792 8.883233043620148 19.06694024018242 0 -1 0
21 3 1 1.910676167815688 7.957343636994901 4.952709543261294 19.123752374589138 -1 0 -4
406 46 1 1.867423924936838 3.4576981733013996 9.527417285808376 11.148917424198519 6 2 7
359 40 2 -1.009538700430767 7.551739517088901 5.574335222130369 17.705568502860714 7 -9 0
399 45 1 1.805200215773493 8.508489130931364 5.358444962773374 14.513088017185314 -6 -2 3
486 54 2 -0.9354498506780692 5.0496338262210525 9.272984011342562 11.08033559122347 -3 -8 -4
248 28 2 -0.9967001403197882 5.940368061230096 7.35042039848649 16.681514333593363 -2 2 3
9 1 2 -0.836816172524026 10.052202084209046 5.097154014533714 13.945945379048608 10 -1 8