LAMMPS data file via write_data, version 2 Aug 2023, timestep = 30000, units = real

3170 atoms
9 atom types
2146 bonds
7 bond types
1206 angles
8 angle types
210 dihedrals
4 dihedral types

-41.686647708785515 41.686647708785515 xlo xhi
-14.6345946231806 14.6345946231806 ylo yhi
-14.6345946231806 14.6345946231806 zlo zhi

Masses

1 15.9994
2 12.011
3 1.008
4 1.008
5 12.011
6 15.9994
7 15.9994
8 15.9994
9 1.008

Pair Coeffs # lj/cut/coul/long

1 0.2526 2.8492
2 0.0663 3.5812
3 0.0283 2.3734
4 0 0
5 0.245 2.8114
6 0.1195 3.1
7 0.1195 3.1
8 0.155 3.165
9 0 0

Bond Coeffs # harmonic

1 1109.29 1.12
2 399.792 1.43
3 299.844 1.52
4 400.034 1.53
5 310.707 1.41
6 179.254 0.971
7 1059.16 1.012

Angle Coeffs # harmonic

1 47.694 109.5
2 55.1271 109.5
3 47.635 109.6
4 55.1139 111
5 54.9931 110.3
6 180.46 109
7 30.1731 110
8 75.9 113.24

Dihedral Coeffs # harmonic

1 0.3011 1 3
2 1.4149 1 3
3 0.239 -1 3
4 0 1 1

Atoms # full

3039 1013 8 0.41 -34.09701165153929 -12.650823717056502 -10.20285945818566 1 0 0
3037 1013 7 -0.82 -33.424181197678706 -13.412872983217607 -10.15920772120823 1 0 0
3038 1013 8 0.41 -33.04429751257948 -13.740262427541975 -11.04395069277152 1 0 0
572 191 8 0.41 -40.9309630895868 -10.415253207929013 -10.004402247711589 0 0 1
571 191 7 -0.82 -40.239093772045834 -9.73049629434107 -9.7098334399841 0 0 1
573 191 8 0.41 -40.53269620054351 -8.991829868505958 -9.07819456450375 0 0 1
1166 389 8 0.41 -32.23391596311375 -8.925401222729146 -7.918198591414293 0 1 1
1165 389 7 -0.82 -31.57089852480681 -9.689902175079807 -8.008074838144829 0 1 1
2864 955 8 0.41 -38.46834518101838 -13.719418498187437 -12.472752582795549 1 0 1
2863 955 7 -0.82 -39.00799837097742 -12.870674989072855 -12.414590845724149 1 0 1
473 158 8 0.41 -36.294366009604055 -9.89096843186131 -12.994233593830113 0 0 1
30 10 8 0.41 -38.103262838477285 -11.455259000937259 -7.101325725153419 0 0 0
1162 388 7 -0.82 -34.239673560958785 -12.50770340411894 -14.62714833896111 0 1 1
380 127 8 0.41 -40.307121409097384 1.1811387259175454 -0.8517092639893438 0 0 0
653 218 8 0.41 -32.540769837771066 -8.672606064151724 -13.101876701983544 0 0 0
652 218 7 -0.82 -33.20299774553192 -8.971146091147563 -13.811410803900555 0 0 0
654 218 8 0.41 -33.695785666347774 -8.228174558451986 -14.30335428127478 0 0 0
472 158 7 -0.82 -37.265419806238604 -9.734821570827295 -13.250679969743398 0 0 1
152 51 8 0.41 -41.00915924201623 9.311296320357897 -6.608737933313929 0 -1 0
518 173 8 0.41 -25.321720771589835 -2.544647337173526 -0.543296186690549 0 0 0
28 10 7 -0.82 -38.29102234315166 -10.530361924178862 -6.724935902270506 0 0 0
2865 955 8 0.41 -39.366042376272496 -12.779626952996445 -11.47737570744645 1 0 1
1234 412 7 -0.82 -20.884987661134364 -1.0626002938069306 -12.834330139101498 0 0 1
1164 388 8 0.41 -33.91220868471231 -11.98542922739468 -13.833896954413504 0 1 1
543 181 8 0.41 -29.426441915832477 -12.838629733511063 -11.47219251408826 0 0 1
541 181 7 -0.82 -30.140131169851553 -12.722900388894674 -12.171699341394289 0 0 1
542 181 8 0.41 -30.775293025298886 -12.092795348031894 -11.720054857290869 0 0 1
1137 379 8 0.41 -26.01778686360883 -7.859054691940201 -12.665543807625465 0 1 1
1149 383 8 0.41 -29.093713020450448 -7.203775246878772 -11.8016427116913 0 1 1
1147 383 7 -0.82 -29.613792171568413 -7.613000071073517 -11.030323684898777 0 1 1
1136 379 8 0.41 -26.218288968692168 -9.301066543425753 -11.82444437053055 0 1 1
404 135 8 0.41 -23.262987983407278 13.527512067782748 -8.11434165712142 0 0 1
405 135 8 0.41 -22.856062275832137 -14.162793046230966 -8.010032510180272 0 1 1
1135 379 7 -0.82 -25.592318095406707 -8.539060362097299 -12.051962289414927 0 1 1
1148 383 8 0.41 -29.460563581207005 -7.143951407652444 -10.140049885335468 0 1 1
478 160 7 -0.82 -26.399757870854557 -13.343725063519683 -10.567951501857 0 1 0
479 160 8 0.41 -26.244725625599497 -12.518530786953832 -11.134410700418087 0 1 0
1327 443 7 -0.82 -26.871109571398485 -9.584991284098827 -8.451964400697188 0 0 1
117 39 8 0.41 -21.80603825903126 -2.5223215305872024 -9.960089762500623 0 0 0
474 158 8 0.41 -37.98334564800803 -10.052208038182743 -12.60323186347098 0 0 1
590 197 8 0.41 -23.317642144442658 -9.354103374860484 -10.75654750977696 0 0 0
978 326 8 0.41 -31.19723812667965 -12.568839450094003 -7.717212697016041 0 1 0
480 160 8 0.41 -25.626798660934682 -13.991599449852002 -10.6639806971863 0 1 0
591 197 8 0.41 -23.130407209354505 -10.59406226507196 -9.665316650810382 0 0 0
403 135 7 -0.82 -23.1202096662513 14.369686823177936 -8.649025562722578 0 0 1
1328 443 8 0.41 -27.478879648291663 -10.390062095839582 -8.372484532938664 0 0 1
977 326 8 0.41 -31.098189711519595 -14.072290501048334 -6.969483495795826 0 1 0
1134 378 8 0.41 -38.11331887802198 -12.93320800010913 -0.09361224307362548 0 0 0
976 326 7 -0.82 -30.630710810114966 -13.39331442846911 -7.556130475390656 0 1 0
2434 812 7 -0.82 -37.09923047103402 -5.809480745414 -14.21994256342138 1 1 0
614 205 8 0.41 -34.79718547962412 -8.149761168836557 -9.830371594601367 0 0 0
331 111 7 -0.82 -24.242260305998677 -6.257391658758213 -0.31362971570482223 0 1 0
613 205 7 -0.82 -35.44293487066622 -8.850950899878768 -9.490778800275743 0 0 0
1084 362 7 -0.82 -20.849004176227282 -6.009874458928884 -7.472905566210886 0 0 0
615 205 8 0.41 -35.830274129839864 -8.613546661665117 -8.583983469229773 0 0 0
320 107 8 0.41 -39.783407677707444 -4.42355676404738 -10.644477277770152 0 0 0
321 107 8 0.41 -40.92099592927563 -3.1850577351062963 -10.69698544403377 0 0 0
1063 355 7 -0.82 -36.233267193709814 -2.6185329266784354 -10.055702451986779 0 0 0
1064 355 8 0.41 -36.79570043853924 -2.5913818651452587 -10.892561999381709 0 0 0
1065 355 8 0.41 -35.8313773451437 -3.541225295579242 -10.040956029934257 0 0 0
15 5 8 0.41 -32.69346649878382 -5.2555719779214165 -11.447691083766603 0 0 0
2743 915 7 -0.82 -41.497465703445066 -7.460443940243989 -12.930731002036925 1 0 1
14 5 8 0.41 -32.996477483619444 -5.102756829729287 -13.012186100864964 0 0 0
13 5 7 -0.82 -33.440561148799496 -5.1063185888161335 -12.10958190762356 0 0 0
951 317 8 0.41 -21.944655438971893 -3.1826546143784817 -5.490785850093518 0 0 1
268 90 7 -0.82 -20.91811109958323 -12.706862338019972 -10.321357644605273 0 0 0
3123 1041 8 0.41 -34.66949267028121 1.2462092602292465 -10.646247662998771 1 0 1
1431 477 8 0.41 -21.015392315725055 4.39951138265171 -6.486070846726307 0 0 1
319 107 7 -0.82 -40.14305933952565 -3.593521885539573 -10.18672269459531 0 0 0
643 215 7 -0.82 -30.583752884034844 -4.088131511578393 -1.2051167854932636 0 0 0
302 101 8 0.41 -38.242643402035455 -2.1260172136671986 -6.530515675609594 0 0 0
477 159 8 0.41 -33.37933952174808 -5.4042972598939905 -7.94521465406492 0 0 1
301 101 7 -0.82 -38.23305109529546 -3.128595464519238 -6.659672097668787 0 0 0
303 101 8 0.41 -38.3679574017345 -3.3573239360809186 -7.63630864942932 0 0 0
8 3 8 0.41 -33.97702697701663 -2.120574157648763 -7.867525940985578 0 0 0
9 3 8 0.41 -34.65030048042696 -0.6007487287674671 -8.189049472650348 0 0 0
7 3 7 -0.82 -33.79965055398886 -1.138003737141947 -8.046616557086388 0 0 0
2760 920 8 0.41 -30.697813027873995 8.518919691869112 -1.6359878417014464 1 0 0
517 173 7 -0.82 -24.35485149847957 -2.3414753409084543 -0.32305410754161734 0 0 0
2947 983 7 -0.82 -40.2805259777824 -3.9298476119928853 -0.10556519690645239 1 0 0
535 179 7 -0.82 -24.761417853179484 11.421817338203606 -5.863506609453756 0 0 1
3049 1017 7 -0.82 -37.102885776322886 3.649032027061505 -13.847025590598369 1 0 1
325 109 7 -0.82 -38.85808644329263 -2.515290275615742 -13.309443361145007 0 -1 0
466 156 7 -0.82 -27.24107398447771 -5.481086387518765 -13.485455825598994 0 0 1
2631 877 8 0.41 -27.71777316403112 -3.8960432498217443 -9.752548072585462 1 0 0
2629 877 7 -0.82 -28.660486175361612 -4.117722842060289 -10.064282483365742 1 0 0
467 156 8 0.41 -27.039155207623367 -4.639920237748878 -12.967816921263903 0 0 1
3110 1037 8 0.41 -25.001209368361902 -6.193100987377818 -10.505131963956282 1 1 0
3109 1037 7 -0.82 -24.128222148677363 -5.682922448780456 -10.427737322679551 1 1 0
1132 378 7 -0.82 -37.13352891093304 -12.675777925640984 -0.07961343284690159 0 0 0
2630 877 8 0.41 -29.216037324787884 -3.442777107171475 -10.595634926735794 1 0 0
578 193 8 0.41 -23.654366816913868 -2.147908260017534 -13.392656124575739 0 0 1
464 155 8 0.41 -30.3541423170319 -3.7029091025083645 -13.812288453452851 0 1 1
554 185 8 0.41 -41.17216455788865 -6.048202300223746 -6.270372194916245 0 0 1
463 155 7 -0.82 -31.041389299418544 -2.967968437275294 -13.726029022990506 0 1 1
465 155 8 0.41 -30.91246587781287 -2.2359264286242944 -14.416685562945492 0 1 1
577 193 7 -0.82 -24.362835896121627 -2.7756548552113287 -13.742045356831499 0 0 1
3111 1037 8 0.41 -23.42577365240433 -5.901044281540255 -11.129315250819925 1 1 0
396 132 8 0.41 -29.33735529217126 -2.884018190269096 -7.369983405868012 0 1 1
394 132 7 -0.82 -30.094227846895652 -2.3189587390943167 -7.020852159536671 0 1 1
442 148 7 -0.82 -27.650775861492136 -1.3304447415087477 -11.830549226839391 0 0 1
443 148 8 0.41 -27.82498041820305 -0.8555552258411456 -12.710782340776626 0 0 1
475 159 7 -0.82 -34.33777735759369 -5.28791300955006 -7.636765002619114 0 0 1
437 146 8 0.41 -33.8476013206593 13.173498877307654 -13.523113116736463 0 0 1
476 159 8 0.41 -34.43199016133276 -5.128389304185628 -6.638831606582115 0 0 1
1086 362 8 0.41 -21.339175234955277 -6.5105677112087275 -8.20331745007728 0 0 0
2855 952 8 0.41 -41.24763426142498 -9.153326331813739 -2.242609321204311 1 0 1
1088 363 8 0.41 -24.391334614107755 -2.3078660251735528 -7.627980809404035 0 1 0
115 39 7 -0.82 -21.281920920013057 -1.8589918639952359 -9.397993739865203 0 0 0
2948 983 8 0.41 -39.37905037330613 -3.601271668550055 -0.45008513480906664 1 0 0
1032 344 8 0.41 -36.87520629402556 7.154650496543361 -12.094156879708681 0 0 1
3128 1043 8 0.41 -39.928790502955614 2.951376121104623 -9.283547693994729 1 0 1
486 162 8 0.41 -33.60083251320346 -1.4483699089150495 -12.115122350481611 0 0 0
2993 998 8 0.41 -32.785037725691765 3.128677656272334 -6.748398706485265 1 0 1
2994 998 8 0.41 -34.36143342091238 2.537718201750504 -6.862271312721388 1 0 1
485 162 8 0.41 -32.38809651886487 -1.3447233788254582 -10.959885009028815 0 0 0
484 162 7 -0.82 -32.63555356997995 -1.2036732271191983 -11.931443559731786 0 0 0
316 106 7 -0.82 -31.86973804951834 2.990521789234105 -11.976098212064022 0 -1 0
318 106 8 0.41 -31.430701357536048 2.124793713751856 -11.68644819276853 0 -1 0
183 61 8 0.41 -40.92464507858542 2.1082545885989035 -13.072287073491678 0 -1 0
3121 1041 7 -0.82 -34.77605461588405 1.8025929530074905 -9.801261124939318 1 0 1
3122 1041 8 0.41 -34.54203442552869 2.7881437885930325 -9.903678745453208 1 0 1
317 106 8 0.41 -31.622778642614485 3.27858082308601 -12.917511612630694 0 -1 0
182 61 8 0.41 -39.396481068034745 1.853426001100857 -12.453635827377012 0 -1 0
880 294 7 -0.82 -29.65466521853551 1.1197677324711428 -8.919798854837499 0 0 0
108 36 8 0.41 -30.710377019559196 6.660883406733699 -11.70934035417604 0 0 1
106 36 7 -0.82 -31.205354374171748 6.957359250788116 -10.871033995863236 0 0 1
107 36 8 0.41 -31.00489967119033 7.89062220858651 -10.519021991702356 0 0 1
384 128 8 0.41 -35.575586920477356 6.383943798709083 -6.652300880789613 0 0 1
445 149 7 -0.82 -23.576980065163642 1.4567043401882813 -0.33570605873879167 0 0 0
1031 344 8 0.41 -38.530949873569526 6.7841001906925555 -11.810024607515976 0 0 1
181 61 7 -0.82 -40.36899696469273 1.5803837446317885 -12.409302171576584 0 -1 0
383 128 8 0.41 -36.52905954313719 6.2506671301070185 -8.006575532719527 0 0 1
382 128 7 -0.82 -36.52645127375139 6.396342765372804 -7.000769115020807 0 0 1
1030 344 7 -0.82 -37.72851492216715 7.364772358174751 -11.588899622761673 0 0 1
1124 375 8 0.41 -21.900922767626128 5.191998688832168 -12.744430344619936 0 0 1
89 30 8 0.41 -24.33164985415865 5.992185495675461 -8.205060870483587 0 0 0
88 30 7 -0.82 -24.957373537875462 5.331772023988382 -7.751328022933667 0 0 0
882 294 8 0.41 -30.534575671786236 1.1968808936853872 -8.4291008219765 0 0 0
406 136 7 -0.82 -26.998584532826293 8.343079737635872 -12.042365501644365 0 0 1
407 136 8 0.41 -26.603549455838206 8.876757143415482 -11.273620493878514 0 0 1
444 148 8 0.41 -26.721949586248442 -1.7246462961521836 -11.75646780298988 0 0 1
1123 375 7 -0.82 -22.21216054672142 5.387332936499348 -13.689005781149284 0 0 1
337 113 7 -0.82 -24.58982721417458 5.701737594311144 -11.411334805423373 0 0 0
351 117 8 0.41 -24.120199936661844 0.5303700605226673 -12.038219899302009 0 0 0
1125 375 8 0.41 -22.747822704183573 6.248518198393047 -13.764623781382717 0 0 1
350 117 8 0.41 -25.403407790915956 1.0050605641593116 -11.1647270943627 0 0 0
349 117 7 -0.82 -24.501993311768363 0.5517555026037453 -11.10637559444611 0 0 0
408 136 8 0.41 -27.866681997075865 8.72535373856567 -12.397148586539448 0 0 1
2641 881 7 -0.82 -27.569350729550642 2.899646657436996 -11.44472485433685 1 0 0
2643 881 8 0.41 -28.06458864569048 2.236097292003798 -10.85962463801808 1 0 0
2642 881 8 0.41 -28.190540863562262 3.575666660842227 -11.875627958745241 1 0 0
1390 464 7 -0.82 -21.77147415395796 3.48117359395739 -10.161570767369213 0 0 1
881 294 8 0.41 -28.896865227809197 0.7694013046081398 -8.347871267246195 0 0 0
338 113 8 0.41 -24.554220329759218 4.783690689555769 -10.985604992258008 0 0 0
2955 985 8 0.41 -25.843272406185633 2.1154049686725003 -7.495667864928016 1 0 0
2953 985 7 -0.82 -25.643004027165723 1.2338150839130755 -7.954198479356661 1 0 0
241 81 7 -0.82 -29.341843178809157 4.531857860559917 -7.883442352474641 0 0 0
2909 970 8 0.41 -38.257110819604804 14.603207257249894 -9.11799719071336 1 0 1
2910 970 8 0.41 -38.68319827441299 -14.547053535996177 -7.510355319625791 1 1 1
153 51 8 0.41 -39.836518774175865 10.315779887131118 -6.0171230899033805 0 -1 0
436 146 7 -0.82 -33.51903031204506 12.50502456701863 -14.210434899287426 0 0 1
146 49 8 0.41 -41.50691134784875 8.900186566501173 -10.703638806271881 0 -1 0
2923 975 7 -0.82 -28.054506962016053 -9.449213538974547 -14.520297950875321 1 1 1
145 49 7 -0.82 -41.476066823313374 9.290718733378991 -9.767464518483507 0 -1 0
233 78 8 0.41 -38.601106014499486 12.39352260355852 -12.45157389483422 0 0 0
720 240 8 0.41 -34.403301185476224 9.196429900228715 -10.759447858319792 0 -1 1
718 240 7 -0.82 -34.05349590274544 9.86234158115591 -10.078684614296094 0 -1 1
2403 801 8 0.41 -39.81426781819035 -0.49375719520277705 -9.171452798774116 1 0 0
719 240 8 0.41 -33.81909776508017 9.423514405761527 -9.191897843998888 0 -1 1
234 78 8 0.41 -37.18078137498837 12.084451942627513 -11.616585012859629 0 0 0
3030 1010 8 0.41 -32.46472153635344 7.114537031393237 -7.058079805049232 1 0 0
272 91 8 0.41 -37.90242434606527 11.19495875946501 -8.517634979698563 0 0 0
271 91 7 -0.82 -37.1327931348763 11.831481645852545 -8.328813030331197 0 0 0
273 91 8 0.41 -36.21207420891719 11.414806001245907 -8.232405241852687 0 0 0
2582 861 8 0.41 -30.9400391870072 12.696572421258235 -11.873383296023691 1 0 0
2581 861 7 -0.82 -30.426196295632135 12.828493800885578 -11.004645563746713 1 0 0
2583 861 8 0.41 -30.75340847401575 13.559301911432435 -10.380142312092769 1 0 0
3028 1010 7 -0.82 -33.08049034277383 6.896353944651331 -7.830293559315415 1 0 0
1133 378 8 0.41 -36.98788318230599 -11.692882184426027 -0.2813881669555389 0 0 0
2908 970 7 -0.82 -38.67923962008197 -14.074804285078008 -8.409169157380802 1 1 1
3029 1010 8 0.41 -32.65470304355371 6.282896500834944 -8.514558887700716 1 0 0
2436 812 8 0.41 -37.1170873621452 -6.536562568579139 -13.513989149543718 1 1 0
91 31 7 -0.82 -28.958785030141513 13.375227390443353 -14.200733059707742 0 0 0
580 194 7 -0.82 -30.82265860456519 9.602817348437757 -13.04206403106709 0 -1 1
232 78 7 -0.82 -37.892747516156156 12.769600931191082 -11.832906042535122 0 0 0
717 239 8 0.41 -26.83546526772931 11.932187534426614 -12.562204007563695 0 0 1
716 239 8 0.41 -25.61914723350213 11.027254246426622 -13.395245136345439 0 0 1
582 194 8 0.41 -31.670645862228042 9.039966616259996 -13.081393661448491 0 -1 1
112 38 7 -0.82 -22.52080138378781 14.032268176526404 -13.510605056848929 0 -1 1
113 38 8 0.41 -23.251081879290275 13.466671524688728 -13.093943460113321 0 -1 1
114 38 8 0.41 -21.608701871308433 13.837763925865044 -13.11439773491786 0 -1 1
339 113 8 0.41 -25.50084472356426 5.986265564959787 -11.752704445108026 0 0 0
159 53 8 0.41 -22.067506950262775 8.667960339325582 -7.586524399258066 0 0 0
2501 834 8 0.41 -29.120775943905922 10.004276718105121 -6.890791582516454 1 -1 0
581 194 8 0.41 -30.723480207284645 10.323337522192308 -13.756457845963956 0 -1 1
92 31 8 0.41 -28.499994821753553 13.88806300461879 -13.453726056343749 0 0 0
2500 834 7 -0.82 -29.197727241872773 10.027659222783232 -7.899103702256828 1 -1 0
2502 834 8 0.41 -30.061230397655013 10.464096571518478 -8.19360939784697 1 -1 0
765 255 8 0.41 -23.0852350515202 9.455704086022049 -11.240949899861656 0 0 0
764 255 8 0.41 -23.74818784558438 10.663736796763033 -10.356261985329537 0 0 0
763 255 7 -0.82 -23.272757843780536 9.772082851754003 -10.297944213182905 0 0 0
306 102 8 0.41 -27.464246437836497 11.614396020546746 -9.554551108037012 0 0 0
304 102 7 -0.82 -26.57130896663125 11.981897818158995 -9.263988038167168 0 0 0
305 102 8 0.41 -26.728559676999335 12.794252426960472 -8.678086577141356 0 0 0
468 156 8 0.41 -26.61721688843248 -5.574181238411683 -14.273984072699488 0 0 1
536 179 8 0.41 -24.18161400933358 10.927703094456675 -5.193820684399888 0 0 1
715 239 7 -0.82 -25.96705206007333 11.936038942446231 -13.090694177428485 0 0 1
90 30 8 0.41 -24.632934020920295 4.918800669059642 -6.883589429382171 0 0 0
2758 920 7 -0.82 -31.432438619657155 7.9037461510223 -1.957599307240768 1 0 0
553 185 7 -0.82 -40.832919969274066 -6.574941328518538 -5.4759441373112026 0 0 1
1167 389 8 0.41 -30.68554559330694 -9.424362019206011 -8.432258895170946 0 1 1
2406 802 8 0.41 -39.59704639302807 -11.527716864664043 -3.6530497595640803 1 0 0
2781 927 8 0.41 -27.68160702355098 -0.6439616360452955 -2.0996200026957172 1 0 1
644 215 8 0.41 -30.4505854544973 -3.979155493871815 -0.21159653736239825 0 0 0
3051 1017 8 0.41 -36.3420380837238 4.2959069725708865 -13.666609362702612 1 0 1
2405 802 8 0.41 -40.574248078512184 -11.661577146448833 -4.954968968882351 1 0 0
3104 1035 8 0.41 -38.53754387176798 -4.840734083861797 -4.338949302144595 1 1 0
3103 1035 7 -0.82 -38.771830472988896 -4.813884052357864 -3.3599694430482696 1 1 0
2560 854 7 -0.82 -35.17157327802267 -12.635654811095147 -6.295035335811065 1 0 0
2562 854 8 0.41 -34.58039467888037 -11.867943285942289 -6.606441514220563 1 0 0
2561 854 8 0.41 -35.18750207726163 -13.444189540054296 -6.916655808777129 1 0 0
29 10 8 0.41 -37.61384473818975 -10.229301345625231 -6.034382874604006 0 0 0
3074 1025 8 0.41 -34.683587608481346 -8.560258419673685 -1.6905857627177205 1 0 0
207 69 8 0.41 -34.121649982447714 -14.551256199480514 -2.9524197955551763 0 1 0
205 69 7 -0.82 -33.44525908540195 -14.387609815068128 -2.204601037054946 0 1 0
3073 1025 7 -0.82 -34.61709539351881 -9.119734366681525 -0.8406230939895938 1 0 0
157 53 7 -0.82 -22.261817672319026 9.267487487040054 -6.791468915774079 0 0 0
2404 802 7 -0.82 -40.219657439659 -12.14888993203631 -4.148600915685911 1 0 0
1392 464 8 0.41 -22.570249937659124 2.858824071432945 -10.201594494390426 0 0 1
1329 443 8 0.41 -25.908493338028634 -9.812722421946976 -8.23270352300907 0 0 1
705 235 8 0.41 -27.322188000503708 12.205019728511981 -3.561525305477451 0 0 0
1141 381 7 -0.82 -24.372713903582145 -10.551544995668309 -5.5457401649948554 0 0 1
368 123 8 0.41 -30.690520233493494 -9.277553442141164 -2.6917970746554367 0 0 1
1061 354 8 0.41 -21.6328673432378 2.7106883791771352 -3.63718248867141 0 0 0
1276 426 7 -0.82 -23.83385967976545 -14.165975833988929 -4.658600855852011 0 0 0
377 126 8 0.41 -30.727982722229243 -13.372523326122113 -0.06580605589989652 0 0 1
1517 506 8 0.41 -29.11453989166654 -13.96365360010969 -4.468976038633674 0 1 1
1111 371 7 -0.82 -23.46979782399834 11.627023336379342 -1.7918027044804603 0 0 1
1518 506 8 0.41 -28.559324202772743 -13.131434913012944 -5.707012335562979 0 1 1
1516 506 7 -0.82 -28.62468991876763 -13.111720899226764 -4.69996014494123 0 1 1
2998 1000 7 -0.82 -39.2787615247614 5.093156073425902 -0.11056846618616945 1 0 1
1235 412 8 0.41 -21.135354705428547 -0.4731103023818264 -12.047660613679085 0 0 1
742 248 7 -0.82 -27.093476041256544 -9.530700187412279 -0.8253970702886697 0 1 0
743 248 8 0.41 -26.691745001938642 -9.803737886259558 -1.7137758064914674 0 1 0
744 248 8 0.41 -28.08785678675892 -9.727147829665006 -0.812375025166828 0 1 0
53 18 8 0.41 -22.107758156134345 -11.914521438090096 -1.073954879910202 0 1 0
295 99 7 -0.82 -24.731607327758145 8.444137901870896 -2.867605502720581 0 0 0
695 232 8 0.41 -22.58104265563181 -7.56654150419798 -5.915173048375207 0 0 1
1278 426 8 0.41 -24.603172734509744 14.443166069192106 -4.758581857009567 0 -1 0
2999 1000 8 0.41 -39.93520306330571 5.186218518601017 -0.87900798689315 1 0 1
367 123 7 -0.82 -30.31288723777216 -9.180932201689751 -3.6279578534772003 0 0 1
369 123 8 0.41 -30.962837673094214 -9.506117201165639 -4.336667452575112 0 0 1
1143 381 8 0.41 -24.99108895623987 -10.862891016581647 -4.813471468175845 0 0 1
694 232 7 -0.82 -23.54451732778952 -7.345457568542003 -5.721472566211373 0 0 1
1142 381 8 0.41 -23.425354511235593 -10.871149623933194 -5.393680927297247 0 0 1
1277 426 8 0.41 -22.963926636175405 14.62661863454058 -4.460121984287973 0 -1 0
1441 481 7 -0.82 -20.93959532669099 -8.357595967667429 -1.7578369435931052 0 0 1
327 109 8 0.41 -38.86185858587071 -1.5092318574887393 -13.198018975859085 0 -1 0
519 173 8 0.41 -23.780096686384802 -3.1727376395778055 -0.36177105390165565 0 0 0
555 185 8 0.41 -40.2202731998399 -7.328771811779636 -5.7543553398698855 0 0 1
2402 801 8 0.41 -38.242704157198794 0.09008028043518124 -9.217101029245892 1 0 0
3105 1035 8 0.41 -39.11879240386141 -5.73445061387803 -3.1399440063926107 1 1 0
2491 831 7 -0.82 -35.133924023745614 -5.457598451310599 -2.2401960493243713 1 0 0
686 229 8 0.41 -34.22878925857212 -1.2441785908868344 -4.775766019939148 0 1 0
2493 831 8 0.41 -35.98908431940764 -4.953172101484402 -2.0345265472394534 1 0 0
2492 831 8 0.41 -34.57563875323385 -5.029280374139578 -2.970355529240379 1 0 0
628 210 7 -0.82 -39.247154944265624 -0.684410491075786 -3.4052619121046597 0 0 0
630 210 8 0.41 -39.288565093596105 -1.4981778440882234 -4.007022146929833 0 0 0
685 229 7 -0.82 -34.7940713527118 -1.9901955934464652 -4.39603217709854 0 1 0
291 97 8 0.41 -31.292392021231656 -4.13548511145251 -4.536109937124927 0 1 0
245 82 8 0.41 -20.955726092578573 12.220307173962663 -3.3469621712703734 0 0 0
1005 335 8 0.41 -27.200207910906855 12.16096709054067 -0.04437317320698497 0 -1 0
687 229 8 0.41 -35.75625084409265 -1.7904925766688446 -4.622922100642954 0 1 0
629 210 8 0.41 -38.29260277490545 -0.36619619550205584 -3.2610766843404164 0 0 0
144 48 8 0.41 -31.548512801238942 0.5545991850069427 -4.938274397637853 0 0 0
2401 801 7 -0.82 -39.2050415717802 0.2884020959126943 -8.97425736608723 1 0 0
395 132 8 0.41 -30.90652992568562 -2.4728110315272964 -7.599723515273077 0 1 1
446 149 8 0.41 -23.73601571183234 0.4748224021600542 -0.13056433908692355 0 0 0
290 97 8 0.41 -30.82651162024492 -5.670433785002674 -4.965342706448325 0 1 0
289 97 7 -0.82 -31.218869943153464 -4.797684433088408 -5.298189202558676 0 1 0
326 109 8 0.41 -39.58776394091311 -2.896249401036643 -13.910750078566988 0 -1 0
2780 927 8 0.41 -27.201434596509753 0.785591044451726 -1.297330223299296 1 0 1
696 232 8 0.41 -24.110478435405017 -7.42722361853708 -6.5536026368147695 0 0 1
623 208 8 0.41 -27.750686984461176 -6.682611726590972 -6.485124477690459 0 0 0
950 317 8 0.41 -21.14848037763419 -1.7300059994951642 -5.1223867768845786 0 0 1
622 208 7 -0.82 -28.67322595468555 -6.2716175301475126 -6.550830581538648 0 0 0
624 208 8 0.41 -28.777415368839208 -5.737279153845071 -7.399570414482349 0 0 0
1087 363 7 -0.82 -24.6971932158118 -3.2577110780773157 -7.434096104188714 0 1 0
1089 363 8 0.41 -24.598711214714555 -3.9651422403683227 -8.158866981946264 0 1 0
532 178 7 -0.82 -24.37940470515742 -0.9500447055417993 -3.789720812622761 0 0 0
49 17 7 -0.82 -26.765704998134744 -4.647602963896958 -2.0667159394967225 0 0 0
51 17 8 0.41 -26.05401230878399 -4.776225124759799 -2.7743538320695063 0 0 0
50 17 8 0.41 -27.65607015609332 -4.43021681311367 -2.4872434977746813 0 0 0
534 178 8 0.41 -24.895902456009928 -1.8195353611551717 -3.784505918236121 0 0 0
943 315 7 -0.82 -27.902055292684953 0.07500367125835083 -4.779101744688406 0 0 0
1499 500 8 0.41 -21.80984006485432 -4.669131678015528 -2.4113399226326493 0 0 1
533 178 8 0.41 -24.21174413134753 -0.5969958942987947 -2.854737149072861 0 0 0
333 111 8 0.41 -25.113269354565375 -6.724728205562473 -0.5540346125780466 0 1 0
945 315 8 0.41 -28.667326485996647 -0.35628511299456633 -5.295332409504159 0 0 0
651 217 8 0.41 -36.211278103913216 5.1967441395687395 -1.4065409529112394 0 0 0
242 81 8 0.41 -28.67132886876606 5.294808127077523 -7.961416532474758 0 0 0
3127 1043 7 -0.82 -39.830230644268646 3.904742204810166 -8.945902267464655 1 0 1
693 231 8 0.41 -38.55366393668927 1.2963887864825328 -6.487728220786639 0 0 1
2992 998 7 -0.82 -33.763668540809114 3.3588613806124563 -6.880945551082195 1 0 1
691 231 7 -0.82 -37.76656343945718 0.7396685542752905 -6.167498785885286 0 0 1
3129 1043 8 0.41 -40.057589308389566 4.014027221099127 -7.967525447180838 1 0 1
25 9 7 -0.82 -31.990743795028948 -0.4812099354966577 -0.5149160431009783 0 1 -1
589 197 7 -0.82 -23.01319352574353 -9.600484079553413 -9.823475016973703 0 0 0
692 231 8 0.41 -36.98622776178777 1.3537683279722348 -5.9664897023486265 0 0 1
645 215 8 0.41 -30.99246985205227 -3.2122345433789725 -1.4957390326887765 0 0 0
178 60 7 -0.82 -31.572977578571276 9.863388036353786 -5.133918735345256 0 0 0
2735 912 8 0.41 -35.129080416245976 1.7213767607280488 -1.0841922328165463 1 0 1
2734 912 7 -0.82 -36.13458980382059 1.6771965514246254 -1.1878283528546287 1 0 1
2736 912 8 0.41 -36.602083465357325 1.9688770758594885 -0.33980537784455045 1 0 1
142 48 7 -0.82 -32.415572138752694 0.936877912817657 -4.577455246806586 0 0 0
1391 464 8 0.41 -21.17547948020554 3.2882925183870704 -9.364856504362088 0 0 1
179 60 8 0.41 -32.191310008722105 10.279200091494193 -4.4447441860701495 0 0 0
2759 920 8 0.41 -31.352115986512054 6.9730279731397715 -1.5661832478156086 1 0 0
2521 841 7 -0.82 -40.29382553373904 6.415555137213939 -3.6258823595024623 1 -1 0
143 48 8 0.41 -32.382279632077584 1.1262099016190472 -3.5818085135609667 0 0 0
2949 983 8 0.41 -41.063576171880605 -3.2796481118139234 -0.06256531448591218 1 0 0
297 99 8 0.41 -24.773740855516188 8.087677800437437 -3.811220588653695 0 0 0
649 217 7 -0.82 -35.344462473485066 5.4857107661906745 -0.9413649283371477 0 0 0
52 18 7 -0.82 -22.27713818934166 -12.62134937583911 -0.35713382076042954 0 1 0
116 39 8 0.41 -21.44660563586565 -2.0378259485981935 -8.418204635297453 0 0 0
27 9 8 0.41 -32.91841402929282 -0.7772774634350306 -0.7823499457108785 0 1 -1
944 315 8 0.41 -26.988293921368374 0.14261554276203015 -5.22617053997153 0 0 0
254 85 8 0.41 -28.690803405411753 4.081280805094568 -4.381874844240645 0 0 0
253 85 7 -0.82 -29.23560899123597 4.174382128061779 -3.5329694248699415 0 0 0
703 235 7 -0.82 -28.235500968998473 12.178017884660388 -4.00334790654502 0 0 0
2779 927 7 -0.82 -27.34863371153 -0.21660550707747817 -1.2420013537875754 1 0 1
416 139 8 0.41 -30.817199221972096 3.5360521003063 -0.11730629733825637 0 0 0
1221 407 8 0.41 -21.674320933113254 6.908202856281381 -3.7348206330005933 0 0 1
158 53 8 0.41 -21.945838779741724 10.211095695763177 -6.964456493160049 0 0 0
704 235 8 0.41 -28.948491280270325 11.700597671963084 -3.4619356853098324 0 0 0
255 85 8 0.41 -29.22718478163933 3.310226009475656 -3.005959885693155 0 0 0
537 179 8 0.41 -24.746326884661205 10.997265477093794 -6.785760512931655 0 0 1
54 18 8 0.41 -22.734108628933036 -13.475121147771281 -0.6612792061097252 0 1 0
250 84 7 -0.82 -28.30817306794584 7.541780915402256 -3.4105823747237647 0 0 0
2954 985 8 0.41 -24.653919336475408 1.0197093147891607 -8.017617370400394 1 0 0
220 74 7 -0.82 -24.69963798899392 4.773409966413755 -3.544405105124545 0 0 0
222 74 8 0.41 -25.64724729312619 4.555866832855049 -3.272535235334738 0 0 0
221 74 8 0.41 -24.103264049046548 4.6051706743304095 -2.744504054508411 0 0 0
296 99 8 0.41 -25.636464723048757 8.852747107318503 -2.687911091399327 0 0 0
2745 915 8 0.41 -40.808168194222745 -8.191778630953984 -12.79211753969021 1 0 1
180 60 8 0.41 -31.24199614479391 8.928168617762505 -4.923336642675265 0 0 0
251 84 8 0.41 -28.2090441059146 6.7238960895119995 -2.8287423590560934 0 0 0
252 84 8 0.41 -28.84692593888896 7.29027691647515 -4.230218748275943 0 0 0
243 81 8 0.41 -30.02540042001136 4.450543540450823 -8.632489454413289 0 0 0
151 51 7 -0.82 -40.79967775202146 10.021830305373339 -5.918011785877585 0 -1 0
949 317 7 -0.82 -21.05684843899379 -2.6886658989383516 -5.445195742324444 0 0 1
2611 871 7 -0.82 -31.43440478092089 12.248237706714168 -1.8388343087407115 1 0 -1
2414 805 8 0.41 -40.276605085646274 13.481760294303985 -2.7473689891455653 1 0 0
206 69 8 0.41 -33.691828917493886 -13.736219087762267 -1.4573757787436605 0 1 0
2523 841 8 0.41 -39.961370918827534 5.579083612435021 -4.090615441866737 1 -1 0
2522 841 8 0.41 -39.762102026899825 7.24827525395871 -3.8611856335254764 1 -1 0
94 32 7 -0.82 -33.67283342299949 13.437931729215812 -8.262104247569242 0 0 0
2612 871 8 0.41 -32.41687963275187 12.021227562122036 -1.9140271125472914 1 0 -1
96 32 8 0.41 -32.970795465205164 12.746248676082157 -8.482600208286069 0 0 0
95 32 8 0.41 -34.46846396185378 13.312335524801803 -8.871168426901656 0 0 0
2415 805 8 0.41 -40.653179705248334 12.571071892442284 -4.092767971988483 1 0 0
1512 504 8 0.41 -36.479081620758 11.931876802281927 -3.2878872337488545 0 0 1
2358 786 8 0.41 -35.73752676606209 8.650618322518984 -2.7767609277200993 1 0 0
2357 786 8 0.41 -34.94144093496446 8.487231968958302 -1.3188706281669926 1 0 0