LAMMPS data file.
 700 atoms
 1 atom types
 -60 60 xlo xhi
 -40 40 ylo yhi
 -40 40 zlo zhi

 Masses

 1 12.0107

 Atoms # atomic

1 1 -19.026 0.465 -5.162
2 1 -18.758 1.821 -4.853
3 1 -17.418 2.249 -4.67
4 1 -17.151 3.41 -3.903
5 1 -21.438 0.925 -5.1
6 1 -21.17 2.249 -4.67
7 1 -19.83 2.658 -4.45
8 1 -19.562 3.746 -3.582
9 1 -18.222 4.052 -3.232
10 1 -17.954 4.766 -2.037
11 1 -23.85 1.379 -4.996
12 1 -23.582 2.658 -4.45
13 1 -22.242 3.047 -4.193
14 1 -21.974 4.052 -3.232
15 1 -20.634 4.326 -2.855
16 1 -20.366 4.93 -1.602
17 1 -19.026 5.053 -1.153
18 1 -18.758 5.178 0.233
19 1 -17.418 5.136 0.696
20 1 -17.151 4.766 2.037
21 1 -27.87 0.0 -5.183
22 1 -27.602 1.379 -4.996
23 1 -26.262 1.821 -4.853
24 1 -25.994 3.047 -4.193
25 1 -24.654 3.41 -3.903
26 1 -24.386 4.326 -2.855
27 1 -23.046 4.564 -2.456
28 1 -22.778 5.053 -1.153
29 1 -21.438 5.136 -0.696
30 1 -21.17 5.136 0.696
31 1 -19.83 5.053 1.153
32 1 -19.562 4.564 2.456
33 1 -18.222 4.326 2.855
34 1 -17.954 3.41 3.903
35 1 -27.066 3.746 -3.582
36 1 -26.798 4.564 -2.456
37 1 -25.458 4.766 -2.037
38 1 -25.19 5.136 -0.696
39 1 -23.85 5.178 -0.233
40 1 -23.582 5.053 1.153
41 1 -22.242 4.93 1.602
42 1 -21.974 4.326 2.855
43 1 -20.634 4.052 3.232
44 1 -20.366 3.047 4.193
45 1 -19.026 2.658 4.45
46 1 -18.758 1.379 4.996
47 1 -17.418 0.925 5.1
48 1 -17.151 -0.465 5.162
49 1 -27.87 4.93 -1.602
50 1 -27.602 5.178 -0.233
51 1 -26.262 5.178 0.233
52 1 -25.994 4.93 1.602
53 1 -24.654 4.766 2.037
54 1 -24.386 4.052 3.232
55 1 -23.046 3.746 3.582
56 1 -22.778 2.658 4.45
57 1 -21.438 2.249 4.67
58 1 -21.17 0.925 5.1
59 1 -19.83 0.465 5.162
60 1 -19.562 -0.925 5.1
61 1 -18.222 -1.379 4.996
62 1 -17.954 -2.658 4.45
63 1 -27.066 4.564 2.456
64 1 -26.798 3.746 3.582
65 1 -25.458 3.41 3.903
66 1 -25.19 2.249 4.67
67 1 -23.85 1.821 4.853
68 1 -23.582 0.465 5.162
69 1 -22.242 0.0 5.183
70 1 -21.974 -1.379 4.996
71 1 -20.634 -1.821 4.853
72 1 -20.366 -3.047 4.193
73 1 -19.026 -3.41 3.903
74 1 -18.758 -4.326 2.855
75 1 -17.418 -4.564 2.456
76 1 -17.151 -5.053 1.153
77 1 -27.87 3.047 4.193
78 1 -27.602 1.821 4.853
79 1 -26.262 1.379 4.996
80 1 -25.994 0.0 5.183
81 1 -24.654 -0.465 5.162
82 1 -24.386 -1.821 4.853
83 1 -23.046 -2.249 4.67
84 1 -22.778 -3.41 3.903
85 1 -21.438 -3.746 3.582
86 1 -21.17 -4.564 2.456
87 1 -19.83 -4.766 2.037
88 1 -19.562 -5.136 0.696
89 1 -18.222 -5.178 0.233
90 1 -17.954 -5.053 -1.153
91 1 -27.066 -0.925 5.1
92 1 -26.798 -2.249 4.67
93 1 -25.458 -2.658 4.45
94 1 -25.19 -3.746 3.582
95 1 -23.85 -4.052 3.232
96 1 -23.582 -4.766 2.037
97 1 -22.242 -4.93 1.602
98 1 -21.974 -5.178 0.233
99 1 -20.634 -5.178 -0.233
100 1 -20.366 -4.93 -1.602
101 1 -19.026 -4.766 -2.037
102 1 -18.758 -4.052 -3.232
103 1 -17.418 -3.746 -3.582
104 1 -17.151 -2.658 -4.45
105 1 -27.87 -3.047 4.193
106 1 -27.602 -4.052 3.232
107 1 -26.262 -4.326 2.855
108 1 -25.994 -4.93 1.602
109 1 -24.654 -5.053 1.153
110 1 -24.386 -5.178 -0.233
111 1 -23.046 -5.136 -0.696
112 1 -22.778 -4.766 -2.037
113 1 -21.438 -4.564 -2.456
114 1 -21.17 -3.746 -3.582
115 1 -19.83 -3.41 -3.903
116 1 -19.562 -2.249 -4.67
117 1 -18.222 -1.821 -4.853
118 1 -17.954 -0.465 -5.162
119 1 -27.066 -5.136 0.696
120 1 -26.798 -5.136 -0.696
121 1 -25.458 -5.053 -1.153
122 1 -25.19 -4.564 -2.456
123 1 -23.85 -4.326 -2.855
124 1 -23.582 -3.41 -3.903
125 1 -22.242 -3.047 -4.193
126 1 -21.974 -1.821 -4.853
127 1 -20.634 -1.379 -4.996
128 1 -20.366 0.0 -5.183
129 1 -27.87 -4.93 -1.602
130 1 -27.602 -4.326 -2.855
131 1 -26.262 -4.052 -3.232
132 1 -25.994 -3.047 -4.193
133 1 -24.654 -2.658 -4.45
134 1 -24.386 -1.379 -4.996
135 1 -23.046 -0.925 -5.1
136 1 -22.778 0.465 -5.162
137 1 -27.066 -2.249 -4.67
138 1 -26.798 -0.925 -5.1
139 1 -25.458 -0.465 -5.162
140 1 -25.19 0.925 -5.1
141 1 -7.771 0.465 -5.162
142 1 -7.503 1.821 -4.853
143 1 -6.163 2.249 -4.67
144 1 -5.895 3.41 -3.903
145 1 -10.183 0.925 -5.1
146 1 -9.915 2.249 -4.67
147 1 -8.575 2.658 -4.45
148 1 -8.307 3.746 -3.582
149 1 -6.967 4.052 -3.232
150 1 -6.699 4.766 -2.037
151 1 -12.595 1.379 -4.996
152 1 -12.327 2.658 -4.45
153 1 -10.987 3.047 -4.193
154 1 -10.719 4.052 -3.232
155 1 -9.379 4.326 -2.855
156 1 -9.111 4.93 -1.602
157 1 -7.771 5.053 -1.153
158 1 -7.503 5.178 0.233
159 1 -6.163 5.136 0.696
160 1 -5.895 4.766 2.037
161 1 -16.615 0.0 -5.183
162 1 -16.347 1.379 -4.996
163 1 -15.007 1.821 -4.853
164 1 -14.739 3.047 -4.193
165 1 -13.399 3.41 -3.903
166 1 -13.131 4.326 -2.855
167 1 -11.791 4.564 -2.456
168 1 -11.523 5.053 -1.153
169 1 -10.183 5.136 -0.696
170 1 -9.915 5.136 0.696
171 1 -8.575 5.053 1.153
172 1 -8.307 4.564 2.456
173 1 -6.967 4.326 2.855
174 1 -6.699 3.41 3.903
175 1 -15.811 3.746 -3.582
176 1 -15.543 4.564 -2.456
177 1 -14.203 4.766 -2.037
178 1 -13.935 5.136 -0.696
179 1 -12.595 5.178 -0.233
180 1 -12.327 5.053 1.153
181 1 -10.987 4.93 1.602
182 1 -10.719 4.326 2.855
183 1 -9.379 4.052 3.232
184 1 -9.111 3.047 4.193
185 1 -7.771 2.658 4.45
186 1 -7.503 1.379 4.996
187 1 -6.163 0.925 5.1
188 1 -5.895 -0.465 5.162
189 1 -16.615 4.93 -1.602
190 1 -16.347 5.178 -0.233
191 1 -15.007 5.178 0.233
192 1 -14.739 4.93 1.602
193 1 -13.399 4.766 2.037
194 1 -13.131 4.052 3.232
195 1 -11.791 3.746 3.582
196 1 -11.523 2.658 4.45
197 1 -10.183 2.249 4.67
198 1 -9.915 0.925 5.1
199 1 -8.575 0.465 5.162
200 1 -8.307 -0.925 5.1
201 1 -6.967 -1.379 4.996
202 1 -6.699 -2.658 4.45
203 1 -15.811 4.564 2.456
204 1 -15.543 3.746 3.582
205 1 -14.203 3.41 3.903
206 1 -13.935 2.249 4.67
207 1 -12.595 1.821 4.853
208 1 -12.327 0.465 5.162
209 1 -10.987 0.0 5.183
210 1 -10.719 -1.379 4.996
211 1 -9.379 -1.821 4.853
212 1 -9.111 -3.047 4.193
213 1 -7.771 -3.41 3.903
214 1 -7.503 -4.326 2.855
215 1 -6.163 -4.564 2.456
216 1 -5.895 -5.053 1.153
217 1 -16.615 3.047 4.193
218 1 -16.347 1.821 4.853
219 1 -15.007 1.379 4.996
220 1 -14.739 0.0 5.183
221 1 -13.399 -0.465 5.162
222 1 -13.131 -1.821 4.853
223 1 -11.791 -2.249 4.67
224 1 -11.523 -3.41 3.903
225 1 -10.183 -3.746 3.582
226 1 -9.915 -4.564 2.456
227 1 -8.575 -4.766 2.037
228 1 -8.307 -5.136 0.696
229 1 -6.967 -5.178 0.233
230 1 -6.699 -5.053 -1.153
231 1 -15.811 -0.925 5.1
232 1 -15.543 -2.249 4.67
233 1 -14.203 -2.658 4.45
234 1 -13.935 -3.746 3.582
235 1 -12.595 -4.052 3.232
236 1 -12.327 -4.766 2.037
237 1 -10.987 -4.93 1.602
238 1 -10.719 -5.178 0.233
239 1 -9.379 -5.178 -0.233
240 1 -9.111 -4.93 -1.602
241 1 -7.771 -4.766 -2.037
242 1 -7.503 -4.052 -3.232
243 1 -6.163 -3.746 -3.582
244 1 -5.895 -2.658 -4.45
245 1 -16.615 -3.047 4.193
246 1 -16.347 -4.052 3.232
247 1 -15.007 -4.326 2.855
248 1 -14.739 -4.93 1.602
249 1 -13.399 -5.053 1.153
250 1 -13.131 -5.178 -0.233
251 1 -11.791 -5.136 -0.696
252 1 -11.523 -4.766 -2.037
253 1 -10.183 -4.564 -2.456
254 1 -9.915 -3.746 -3.582
255 1 -8.575 -3.41 -3.903
256 1 -8.307 -2.249 -4.67
257 1 -6.967 -1.821 -4.853
258 1 -6.699 -0.465 -5.162
259 1 -15.811 -5.136 0.696
260 1 -15.543 -5.136 -0.696
261 1 -14.203 -5.053 -1.153
262 1 -13.935 -4.564 -2.456
263 1 -12.595 -4.326 -2.855
264 1 -12.327 -3.41 -3.903
265 1 -10.987 -3.047 -4.193
266 1 -10.719 -1.821 -4.853
267 1 -9.379 -1.379 -4.996
268 1 -9.111 0.0 -5.183
269 1 -16.615 -4.93 -1.602
270 1 -16.347 -4.326 -2.855
271 1 -15.007 -4.052 -3.232
272 1 -14.739 -3.047 -4.193
273 1 -13.399 -2.658 -4.45
274 1 -13.131 -1.379 -4.996
275 1 -11.791 -0.925 -5.1
276 1 -11.523 0.465 -5.162
277 1 -15.811 -2.249 -4.67
278 1 -15.543 -0.925 -5.1
279 1 -14.203 -0.465 -5.162
280 1 -13.935 0.925 -5.1
281 1 3.484 0.465 -5.162
282 1 3.752 1.821 -4.853
283 1 5.092 2.249 -4.67
284 1 5.36 3.41 -3.903
285 1 1.072 0.925 -5.1
286 1 1.34 2.249 -4.67
287 1 2.68 2.658 -4.45
288 1 2.948 3.746 -3.582
289 1 4.288 4.052 -3.232
290 1 4.556 4.766 -2.037
291 1 -1.34 1.379 -4.996
292 1 -1.072 2.658 -4.45
293 1 0.268 3.047 -4.193
294 1 0.536 4.052 -3.232
295 1 1.876 4.326 -2.855
296 1 2.144 4.93 -1.602
297 1 3.484 5.053 -1.153
298 1 3.752 5.178 0.233
299 1 5.092 5.136 0.696
300 1 5.36 4.766 2.037
301 1 -5.36 0.0 -5.183
302 1 -5.092 1.379 -4.996
303 1 -3.752 1.821 -4.853
304 1 -3.484 3.047 -4.193
305 1 -2.144 3.41 -3.903
306 1 -1.876 4.326 -2.855
307 1 -0.536 4.564 -2.456
308 1 -0.268 5.053 -1.153
309 1 1.072 5.136 -0.696
310 1 1.34 5.136 0.696
311 1 2.68 5.053 1.153
312 1 2.948 4.564 2.456
313 1 4.288 4.326 2.855
314 1 4.556 3.41 3.903
315 1 -4.556 3.746 -3.582
316 1 -4.288 4.564 -2.456
317 1 -2.948 4.766 -2.037
318 1 -2.68 5.136 -0.696
319 1 -1.34 5.178 -0.233
320 1 -1.072 5.053 1.153
321 1 0.268 4.93 1.602
322 1 0.536 4.326 2.855
323 1 1.876 4.052 3.232
324 1 2.144 3.047 4.193
325 1 3.484 2.658 4.45
326 1 3.752 1.379 4.996
327 1 5.092 0.925 5.1
328 1 5.36 -0.465 5.162
329 1 -5.36 4.93 -1.602
330 1 -5.092 5.178 -0.233
331 1 -3.752 5.178 0.233
332 1 -3.484 4.93 1.602
333 1 -2.144 4.766 2.037
334 1 -1.876 4.052 3.232
335 1 -0.536 3.746 3.582
336 1 -0.268 2.658 4.45
337 1 1.072 2.249 4.67
338 1 1.34 0.925 5.1
339 1 2.68 0.465 5.162
340 1 2.948 -0.925 5.1
341 1 4.288 -1.379 4.996
342 1 4.556 -2.658 4.45
343 1 -4.556 4.564 2.456
344 1 -4.288 3.746 3.582
345 1 -2.948 3.41 3.903
346 1 -2.68 2.249 4.67
347 1 -1.34 1.821 4.853
348 1 -1.072 0.465 5.162
349 1 0.268 0.0 5.183
350 1 0.536 -1.379 4.996
351 1 1.876 -1.821 4.853
352 1 2.144 -3.047 4.193
353 1 3.484 -3.41 3.903
354 1 3.752 -4.326 2.855
355 1 5.092 -4.564 2.456
356 1 5.36 -5.053 1.153
357 1 -5.36 3.047 4.193
358 1 -5.092 1.821 4.853
359 1 -3.752 1.379 4.996
360 1 -3.484 0.0 5.183
361 1 -2.144 -0.465 5.162
362 1 -1.876 -1.821 4.853
363 1 -0.536 -2.249 4.67
364 1 -0.268 -3.41 3.903
365 1 1.072 -3.746 3.582
366 1 1.34 -4.564 2.456
367 1 2.68 -4.766 2.037
368 1 2.948 -5.136 0.696
369 1 4.288 -5.178 0.233
370 1 4.556 -5.053 -1.153
371 1 -4.556 -0.925 5.1
372 1 -4.288 -2.249 4.67
373 1 -2.948 -2.658 4.45
374 1 -2.68 -3.746 3.582
375 1 -1.34 -4.052 3.232
376 1 -1.072 -4.766 2.037
377 1 0.268 -4.93 1.602
378 1 0.536 -5.178 0.233
379 1 1.876 -5.178 -0.233
380 1 2.144 -4.93 -1.602
381 1 3.484 -4.766 -2.037
382 1 3.752 -4.052 -3.232
383 1 5.092 -3.746 -3.582
384 1 5.36 -2.658 -4.45
385 1 -5.36 -3.047 4.193
386 1 -5.092 -4.052 3.232
387 1 -3.752 -4.326 2.855
388 1 -3.484 -4.93 1.602
389 1 -2.144 -5.053 1.153
390 1 -1.876 -5.178 -0.233
391 1 -0.536 -5.136 -0.696
392 1 -0.268 -4.766 -2.037
393 1 1.072 -4.564 -2.456
394 1 1.34 -3.746 -3.582
395 1 2.68 -3.41 -3.903
396 1 2.948 -2.249 -4.67
397 1 4.288 -1.821 -4.853
398 1 4.556 -0.465 -5.162
399 1 -4.556 -5.136 0.696
400 1 -4.288 -5.136 -0.696
401 1 -2.948 -5.053 -1.153
402 1 -2.68 -4.564 -2.456
403 1 -1.34 -4.326 -2.855
404 1 -1.072 -3.41 -3.903
405 1 0.268 -3.047 -4.193
406 1 0.536 -1.821 -4.853
407 1 1.876 -1.379 -4.996
408 1 2.144 0.0 -5.183
409 1 -5.36 -4.93 -1.602
410 1 -5.092 -4.326 -2.855
411 1 -3.752 -4.052 -3.232
412 1 -3.484 -3.047 -4.193
413 1 -2.144 -2.658 -4.45
414 1 -1.876 -1.379 -4.996
415 1 -0.536 -0.925 -5.1
416 1 -0.268 0.465 -5.162
417 1 -4.556 -2.249 -4.67
418 1 -4.288 -0.925 -5.1
419 1 -2.948 -0.465 -5.162
420 1 -2.68 0.925 -5.1
421 1 14.739 0.465 -5.162
422 1 15.007 1.821 -4.853
423 1 16.347 2.249 -4.67
424 1 16.615 3.41 -3.903
425 1 12.327 0.925 -5.1
426 1 12.595 2.249 -4.67
427 1 13.935 2.658 -4.45
428 1 14.203 3.746 -3.582
429 1 15.543 4.052 -3.232
430 1 15.811 4.766 -2.037
431 1 9.915 1.379 -4.996
432 1 10.183 2.658 -4.45
433 1 11.523 3.047 -4.193
434 1 11.791 4.052 -3.232
435 1 13.131 4.326 -2.855
436 1 13.399 4.93 -1.602
437 1 14.739 5.053 -1.153
438 1 15.007 5.178 0.233
439 1 16.347 5.136 0.696
440 1 16.615 4.766 2.037
441 1 5.895 0.0 -5.183
442 1 6.163 1.379 -4.996
443 1 7.503 1.821 -4.853
444 1 7.771 3.047 -4.193
445 1 9.111 3.41 -3.903
446 1 9.379 4.326 -2.855
447 1 10.719 4.564 -2.456
448 1 10.987 5.053 -1.153
449 1 12.327 5.136 -0.696
450 1 12.595 5.136 0.696
451 1 13.935 5.053 1.153
452 1 14.203 4.564 2.456
453 1 15.543 4.326 2.855
454 1 15.811 3.41 3.903
455 1 6.699 3.746 -3.582
456 1 6.967 4.564 -2.456
457 1 8.307 4.766 -2.037
458 1 8.575 5.136 -0.696
459 1 9.915 5.178 -0.233
460 1 10.183 5.053 1.153
461 1 11.523 4.93 1.602
462 1 11.791 4.326 2.855
463 1 13.131 4.052 3.232
464 1 13.399 3.047 4.193
465 1 14.739 2.658 4.45
466 1 15.007 1.379 4.996
467 1 16.347 0.925 5.1
468 1 16.615 -0.465 5.162
469 1 5.895 4.93 -1.602
470 1 6.163 5.178 -0.233
471 1 7.503 5.178 0.233
472 1 7.771 4.93 1.602
473 1 9.111 4.766 2.037
474 1 9.379 4.052 3.232
475 1 10.719 3.746 3.582
476 1 10.987 2.658 4.45
477 1 12.327 2.249 4.67
478 1 12.595 0.925 5.1
479 1 13.935 0.465 5.162
480 1 14.203 -0.925 5.1
481 1 15.543 -1.379 4.996
482 1 15.811 -2.658 4.45
483 1 6.699 4.564 2.456
484 1 6.967 3.746 3.582
485 1 8.307 3.41 3.903
486 1 8.575 2.249 4.67
487 1 9.915 1.821 4.853
488 1 10.183 0.465 5.162
489 1 11.523 0.0 5.183
490 1 11.791 -1.379 4.996
491 1 13.131 -1.821 4.853
492 1 13.399 -3.047 4.193
493 1 14.739 -3.41 3.903
494 1 15.007 -4.326 2.855
495 1 16.347 -4.564 2.456
496 1 16.615 -5.053 1.153
497 1 5.895 3.047 4.193
498 1 6.163 1.821 4.853
499 1 7.503 1.379 4.996
500 1 7.771 0.0 5.183
501 1 9.111 -0.465 5.162
502 1 9.379 -1.821 4.853
503 1 10.719 -2.249 4.67
504 1 10.987 -3.41 3.903
505 1 12.327 -3.746 3.582
506 1 12.595 -4.564 2.456
507 1 13.935 -4.766 2.037
508 1 14.203 -5.136 0.696
509 1 15.543 -5.178 0.233
510 1 15.811 -5.053 -1.153
511 1 6.699 -0.925 5.1
512 1 6.967 -2.249 4.67
513 1 8.307 -2.658 4.45
514 1 8.575 -3.746 3.582
515 1 9.915 -4.052 3.232
516 1 10.183 -4.766 2.037
517 1 11.523 -4.93 1.602
518 1 11.791 -5.178 0.233
519 1 13.131 -5.178 -0.233
520 1 13.399 -4.93 -1.602
521 1 14.739 -4.766 -2.037
522 1 15.007 -4.052 -3.232
523 1 16.347 -3.746 -3.582
524 1 16.615 -2.658 -4.45
525 1 5.895 -3.047 4.193
526 1 6.163 -4.052 3.232
527 1 7.503 -4.326 2.855
528 1 7.771 -4.93 1.602
529 1 9.111 -5.053 1.153
530 1 9.379 -5.178 -0.233
531 1 10.719 -5.136 -0.696
532 1 10.987 -4.766 -2.037
533 1 12.327 -4.564 -2.456
534 1 12.595 -3.746 -3.582
535 1 13.935 -3.41 -3.903
536 1 14.203 -2.249 -4.67
537 1 15.543 -1.821 -4.853
538 1 15.811 -0.465 -5.162
539 1 6.699 -5.136 0.696
540 1 6.967 -5.136 -0.696
541 1 8.307 -5.053 -1.153
542 1 8.575 -4.564 -2.456
543 1 9.915 -4.326 -2.855
544 1 10.183 -3.41 -3.903
545 1 11.523 -3.047 -4.193
546 1 11.791 -1.821 -4.853
547 1 13.131 -1.379 -4.996
548 1 13.399 0.0 -5.183
549 1 5.895 -4.93 -1.602
550 1 6.163 -4.326 -2.855
551 1 7.503 -4.052 -3.232
552 1 7.771 -3.047 -4.193
553 1 9.111 -2.658 -4.45
554 1 9.379 -1.379 -4.996
555 1 10.719 -0.925 -5.1
556 1 10.987 0.465 -5.162
557 1 6.699 -2.249 -4.67
558 1 6.967 -0.925 -5.1
559 1 8.307 -0.465 -5.162
560 1 8.575 0.925 -5.1
561 1 25.994 0.465 -5.162
562 1 26.262 1.821 -4.853
563 1 27.602 2.249 -4.67
564 1 27.87 3.41 -3.903
565 1 23.582 0.925 -5.1
566 1 23.85 2.249 -4.67
567 1 25.19 2.658 -4.45
568 1 25.458 3.746 -3.582
569 1 26.798 4.052 -3.232
570 1 27.066 4.766 -2.037
571 1 21.17 1.379 -4.996
572 1 21.438 2.658 -4.45
573 1 22.778 3.047 -4.193
574 1 23.046 4.052 -3.232
575 1 24.386 4.326 -2.855
576 1 24.654 4.93 -1.602
577 1 25.994 5.053 -1.153
578 1 26.262 5.178 0.233
579 1 27.602 5.136 0.696
580 1 27.87 4.766 2.037
581 1 17.151 0.0 -5.183
582 1 17.418 1.379 -4.996
583 1 18.758 1.821 -4.853
584 1 19.026 3.047 -4.193
585 1 20.366 3.41 -3.903
586 1 20.634 4.326 -2.855
587 1 21.974 4.564 -2.456
588 1 22.242 5.053 -1.153
589 1 23.582 5.136 -0.696
590 1 23.85 5.136 0.696
591 1 25.19 5.053 1.153
592 1 25.458 4.564 2.456
593 1 26.798 4.326 2.855
594 1 27.066 3.41 3.903
595 1 17.954 3.746 -3.582
596 1 18.222 4.564 -2.456
597 1 19.562 4.766 -2.037
598 1 19.83 5.136 -0.696
599 1 21.17 5.178 -0.233
600 1 21.438 5.053 1.153
601 1 22.778 4.93 1.602
602 1 23.046 4.326 2.855
603 1 24.386 4.052 3.232
604 1 24.654 3.047 4.193
605 1 25.994 2.658 4.45
606 1 26.262 1.379 4.996
607 1 27.602 0.925 5.1
608 1 27.87 -0.465 5.162
609 1 17.151 4.93 -1.602
610 1 17.418 5.178 -0.233
611 1 18.758 5.178 0.233
612 1 19.026 4.93 1.602
613 1 20.366 4.766 2.037
614 1 20.634 4.052 3.232
615 1 21.974 3.746 3.582
616 1 22.242 2.658 4.45
617 1 23.582 2.249 4.67
618 1 23.85 0.925 5.1
619 1 25.19 0.465 5.162
620 1 25.458 -0.925 5.1
621 1 26.798 -1.379 4.996
622 1 27.066 -2.658 4.45
623 1 17.954 4.564 2.456
624 1 18.222 3.746 3.582
625 1 19.562 3.41 3.903
626 1 19.83 2.249 4.67
627 1 21.17 1.821 4.853
628 1 21.438 0.465 5.162
629 1 22.778 0.0 5.183
630 1 23.046 -1.379 4.996
631 1 24.386 -1.821 4.853
632 1 24.654 -3.047 4.193
633 1 25.994 -3.41 3.903
634 1 26.262 -4.326 2.855
635 1 27.602 -4.564 2.456
636 1 27.87 -5.053 1.153
637 1 17.151 3.047 4.193
638 1 17.418 1.821 4.853
639 1 18.758 1.379 4.996
640 1 19.026 0.0 5.183
641 1 20.366 -0.465 5.162
642 1 20.634 -1.821 4.853
643 1 21.974 -2.249 4.67
644 1 22.242 -3.41 3.903
645 1 23.582 -3.746 3.582
646 1 23.85 -4.564 2.456
647 1 25.19 -4.766 2.037
648 1 25.458 -5.136 0.696
649 1 26.798 -5.178 0.233
650 1 27.066 -5.053 -1.153
651 1 17.954 -0.925 5.1
652 1 18.222 -2.249 4.67
653 1 19.562 -2.658 4.45
654 1 19.83 -3.746 3.582
655 1 21.17 -4.052 3.232
656 1 21.438 -4.766 2.037
657 1 22.778 -4.93 1.602
658 1 23.046 -5.178 0.233
659 1 24.386 -5.178 -0.233
660 1 24.654 -4.93 -1.602
661 1 25.994 -4.766 -2.037
662 1 26.262 -4.052 -3.232
663 1 27.602 -3.746 -3.582
664 1 27.87 -2.658 -4.45
665 1 17.151 -3.047 4.193
666 1 17.418 -4.052 3.232
667 1 18.758 -4.326 2.855
668 1 19.026 -4.93 1.602
669 1 20.366 -5.053 1.153
670 1 20.634 -5.178 -0.233
671 1 21.974 -5.136 -0.696
672 1 22.242 -4.766 -2.037
673 1 23.582 -4.564 -2.456
674 1 23.85 -3.746 -3.582
675 1 25.19 -3.41 -3.903
676 1 25.458 -2.249 -4.67
677 1 26.798 -1.821 -4.853
678 1 27.066 -0.465 -5.162
679 1 17.954 -5.136 0.696
680 1 18.222 -5.136 -0.696
681 1 19.562 -5.053 -1.153
682 1 19.83 -4.564 -2.456
683 1 21.17 -4.326 -2.855
684 1 21.438 -3.41 -3.903
685 1 22.778 -3.047 -4.193
686 1 23.046 -1.821 -4.853
687 1 24.386 -1.379 -4.996
688 1 24.654 0.0 -5.183
689 1 17.151 -4.93 -1.602
690 1 17.418 -4.326 -2.855
691 1 18.758 -4.052 -3.232
692 1 19.026 -3.047 -4.193
693 1 20.366 -2.658 -4.45
694 1 20.634 -1.379 -4.996
695 1 21.974 -0.925 -5.1
696 1 22.242 0.465 -5.162
697 1 17.954 -2.249 -4.67
698 1 18.222 -0.925 -5.1
699 1 19.562 -0.465 -5.162
700 1 19.83 0.925 -5.1
