LAMMPS data file via write_data, version 29 Aug 2024, timestep = 10000, units = real

3392 atoms
7 atom types
3488 bonds
13 bond types
5376 angles
22 angle types
7552 dihedrals
36 dihedral types
1792 impropers
10 improper types

-2.316452861 13.210439682 xlo xhi
-26.159999999999997 26.159999999999997 ylo yhi
-26.159999999999997 26.159999999999997 zlo zhi

Atom Type Labels

1 cp
2 hc
3 c=1
4 c=
5 c1
6 c2
7 c3

Bond Type Labels

1 cp-cp
2 cp-hc
3 cp-c1
4 hc-c=1
5 c=1-c=
6 hc-c=
7 cp-c3
8 hc-c3
9 c3-c2
10 hc-c2
11 cp-c=1
12 hc-c1
13 c1-c2

Angle Type Labels

1 cp-cp-cp
2 cp-cp-hc
3 cp-cp-c1
4 cp-c1-hc
5 cp-c1-c2
6 hc-c=1-c=
7 hc-c=-c=1
8 hc-c=-hc
9 cp-cp-c3
10 cp-c3-hc
11 cp-c3-c2
12 hc-c3-c2
13 c3-c2-c1
14 hc-c2-c3
15 hc-c2-hc
16 c1-c2-c1
17 cp-cp-c=1
18 cp-c=1-hc
19 cp-c=1-c=
20 hc-c2-c1
21 hc-c1-c2
22 c2-c1-c2

Dihedral Type Labels

1 cp-cp-cp-cp
2 hc-cp-cp-c1
3 cp-cp-cp-hc
4 cp-cp-cp-c1
5 hc-cp-cp-hc
6 cp-cp-c=1-hc
7 cp-cp-c=1-c=
8 cp-c=1-c=-hc
9 hc-c=1-c=-hc
10 hc-cp-cp-c3
11 cp-cp-cp-c3
12 cp-cp-c1-hc
13 cp-cp-c1-c2
14 cp-c1-c2-hc
15 hc-c1-c2-hc
16 c2-c1-c2-hc
17 cp-c1-c2-c1
18 hc-c1-c2-c1
19 c2-c1-c2-c1
20 hc-cp-cp-c=1
21 cp-cp-cp-c=1
22 cp-cp-c3-hc
23 cp-cp-c3-c2
24 cp-c3-c2-hc
25 cp-c3-c2-c1
26 hc-c3-c2-hc
27 hc-c3-c2-c1
28 c3-c2-c1-cp
29 c3-c2-c1-hc
30 c3-c2-c1-c2
31 hc-c2-c1-cp
32 hc-c2-c1-hc
33 hc-c2-c1-c2
34 c1-c2-c1-cp
35 c1-c2-c1-hc
36 c1-c2-c1-c2

Improper Type Labels

1 cp-cp-cp-cp
2 cp-cp-cp-hc
3 cp-cp-cp-c1
4 cp-c=1-hc-c=
5 hc-c=-hc-c=1
6 cp-cp-cp-c3
7 hc-c2-hc-c1
8 cp-c1-hc-c2
9 cp-cp-cp-c=1
10 cp-c3-hc-c2

Masses

1 12.0112
2 1.00797
3 12.0112
4 12.0112
5 12.0112
6 12.0112
7 12.0112

Pair Coeffs # lj/class2/coul/long/omp

1 0.064 4.01
2 0.02 2.7
3 0.064 4.01
4 0.064 3.9
5 0.054 4.01
6 0.054 4.01
7 0.054 4.01

Bond Coeffs # class2/omp

1 1.417 470.836 -627.618 1327.63
2 1.0982 372.825 -803.453 894.317
3 1.501 321.902 -521.821 572.163
4 1.0883 365.768 -725.54 781.662
5 1.34 543.99 -1238.2 1644.03
6 1.0883 365.768 -725.54 781.662
7 1.501 321.902 -521.821 572.163
8 1.101 345 -691.89 844.6
9 1.53 299.67 -501.77 679.81
10 1.101 345 -691.89 844.6
11 1.501 321.902 -521.821 572.163
12 1.101 345 -691.89 844.6
13 1.53 299.67 -501.77 679.81

Angle Coeffs # class2/omp

1 118.9 61.0226 -34.9931 0
2 117.94 35.1558 -12.4682 0
3 120.05 44.7148 -22.7352 0
4 111 44.3234 -9.4454 0
5 108.4 43.9594 -8.3924 -9.3379
6 124.88 35.2766 -17.774 -1.6215
7 124.88 35.2766 -17.774 -1.6215
8 115.49 29.6363 -12.4853 -6.2218
9 120.05 44.7148 -22.7352 0
10 111 44.3234 -9.4454 0
11 108.4 43.9594 -8.3924 -9.3379
12 110.77 41.453 -10.604 5.129
13 112.67 39.516 -7.443 -9.5583
14 110.77 41.453 -10.604 5.129
15 107.66 39.641 -12.921 -2.4318
16 112.67 39.516 -7.443 -9.5583
17 120.05 44.7148 -22.7352 0
18 111 44.3234 -9.4454 0
19 108.4 43.9594 -8.3924 -9.3379
20 110.77 41.453 -10.604 5.129
21 110.77 41.453 -10.604 5.129
22 112.67 39.516 -7.443 -9.5583

BondBond Coeffs

1 68.2856 1.417 1.417
2 1.0795 1.417 1.0982
3 12.0676 1.417 1.501
4 2.9168 1.501 1.0883
5 0 1.501 1.34
6 10.1047 1.0883 1.34
7 10.1047 1.0883 1.34
8 4.8506 1.0883 1.0883
9 12.0676 1.417 1.501
10 2.9168 1.501 1.101
11 0 1.501 1.53
12 3.3872 1.101 1.53
13 0 1.53 1.53
14 3.3872 1.101 1.53
15 5.3316 1.101 1.101
16 0 1.53 1.53
17 12.0676 1.417 1.501
18 2.9168 1.501 1.101
19 0 1.501 1.53
20 3.3872 1.101 1.53
21 3.3872 1.101 1.53
22 0 1.53 1.53

BondAngle Coeffs

1 28.8708 28.8708 1.417 1.417
2 20.0033 24.2183 1.417 1.0982
3 31.0771 47.0579 1.417 1.501
4 26.4608 11.7717 1.501 1.0883
5 0 0 1.501 1.34
6 19.0592 23.3588 1.0883 1.34
7 19.0592 23.3588 1.0883 1.34
8 17.9795 17.9795 1.0883 1.0883
9 31.0771 47.0579 1.417 1.501
10 26.4608 11.7717 1.501 1.101
11 0 0 1.501 1.53
12 11.421 20.754 1.101 1.53
13 8.016 8.016 1.53 1.53
14 11.421 20.754 1.101 1.53
15 18.103 18.103 1.101 1.101
16 8.016 8.016 1.53 1.53
17 31.0771 47.0579 1.417 1.501
18 26.4608 11.7717 1.501 1.101
19 0 0 1.501 1.53
20 11.421 20.754 1.101 1.53
21 11.421 20.754 1.101 1.53
22 8.016 8.016 1.53 1.53

Dihedral Coeffs # class2/omp

1 8.3667 0 1.1932 0 0 0
2 0 0 1.559 0 0 0
3 0 0 3.9661 0 0 0
4 0 0 4.4072 0 0 0
5 0 0 1.8769 0 0 0
6 0 0 0 0 0 0
7 0 0 0 0 0 0
8 0 0 0 0 0 0
9 0 0 4.8974 0 0 0
10 0 0 1.559 0 0 0
11 0 0 4.4072 0 0 0
12 -0.2801 0 -0.0678 0 -0.0122 0
13 -0.2802 0 -0.0678 0 -0.0122 0
14 -0.0228 0 0.028 0 -0.1863 0
15 -0.1432 0 0.0617 0 -0.1083 0
16 0 0 0.0316 0 -0.1681 0
17 0 0 0 0 0 0
18 0 0 0.0316 0 -0.1681 0
19 0 0 0.0514 0 -0.143 0
20 0 0 1.559 0 0 0
21 0 0 4.4072 0 0 0
22 -0.2801 0 -0.0678 0 -0.0122 0
23 -0.2802 0 -0.0678 0 -0.0122 0
24 -0.0228 0 0.028 0 -0.1863 0
25 0 0 0 0 0 0
26 -0.1432 0 0.0617 0 -0.1083 0
27 0 0 0.0316 0 -0.1681 0
28 0 0 0 0 0 0
29 0 0 0.0316 0 -0.1681 0
30 0 0 0.0514 0 -0.143 0
31 -0.0228 0 0.028 0 -0.1863 0
32 -0.1432 0 0.0617 0 -0.1083 0
33 0 0 0.0316 0 -0.1681 0
34 0 0 0 0 0 0
35 0 0 0.0316 0 -0.1681 0
36 0 0 0.0514 0 -0.143 0

AngleAngleTorsion Coeffs

1 0 118.9 118.9
2 4.4444 117.94 120.05
3 -4.8141 118.9 117.94
4 -14.4097 118.9 120.05
5 0.3598 117.94 117.94
6 0 120.05 111
7 0 120.05 108.4
8 0 108.4 124.88
9 -7.0058 124.88 124.88
10 4.4444 117.94 120.05
11 -14.4097 118.9 120.05
12 -5.8888 120.05 111
13 0 120.05 108.4
14 0 108.4 110.77
15 -12.564 110.77 110.77
16 -16.164 112.67 110.77
17 0 108.4 112.67
18 -16.164 110.77 112.67
19 -22.045 112.67 112.67
20 4.4444 117.94 120.05
21 -14.4097 118.9 120.05
22 -5.8888 120.05 111
23 0 120.05 108.4
24 0 108.4 110.77
25 0 108.4 112.67
26 -12.564 110.77 110.77
27 -16.164 110.77 112.67
28 0 112.67 108.4
29 -16.164 112.67 110.77
30 -22.045 112.67 112.67
31 0 110.77 108.4
32 -12.564 110.77 110.77
33 -16.164 110.77 112.67
34 0 112.67 108.4
35 -16.164 112.67 110.77
36 -22.045 112.67 112.67

EndBondTorsion Coeffs

1 -0.1185 6.3204 0 -0.1185 6.3204 0 1.417 1.417
2 0 -0.4879 0 0 -1.797 0 1.0982 1.501
3 0 -6.8958 0 0 -0.4669 0 1.417 1.0982
4 0 -0.6918 0 0 0.2421 0 1.417 1.501
5 0 -0.689 0 0 -0.689 0 1.0982 1.0982
6 0 0 0 0 0 0 1.417 1.0883
7 0 0 0 0 0 0 1.417 1.34
8 0 0 0 0 0 0 1.501 1.0883
9 0.7129 0.5161 0 0.7129 0.5161 0 1.0883 1.0883
10 0 -0.4879 0 0 -1.797 0 1.0982 1.501
11 0 -0.6918 0 0 0.2421 0 1.417 1.501
12 -0.5835 1.122 0.3978 1.3997 0.7756 0 1.417 1.101
13 0 0 0 0 0 0 1.417 1.53
14 0 0 0 0 0 0 1.501 1.101
15 0.213 0.312 0.0777 0.213 0.312 0.0777 1.101 1.101
16 0.2486 0.2422 -0.0925 0.0814 0.0591 0.2219 1.53 1.101
17 0 0 0 0 0 0 1.501 1.53
18 0.0814 0.0591 0.2219 0.2486 0.2422 -0.0925 1.101 1.53
19 -0.0732 0 0 -0.0732 0 0 1.53 1.53
20 0 -0.4879 0 0 -1.797 0 1.0982 1.501
21 0 -0.6918 0 0 0.2421 0 1.417 1.501
22 -0.5835 1.122 0.3978 1.3997 0.7756 0 1.417 1.101
23 0 0 0 0 0 0 1.417 1.53
24 0 0 0 0 0 0 1.501 1.101
25 0 0 0 0 0 0 1.501 1.53
26 0.213 0.312 0.0777 0.213 0.312 0.0777 1.101 1.101
27 0.0814 0.0591 0.2219 0.2486 0.2422 -0.0925 1.101 1.53
28 0 0 0 0 0 0 1.53 1.501
29 0.2486 0.2422 -0.0925 0.0814 0.0591 0.2219 1.53 1.101
30 -0.0732 0 0 -0.0732 0 0 1.53 1.53
31 0 0 0 0 0 0 1.101 1.501
32 0.213 0.312 0.0777 0.213 0.312 0.0777 1.101 1.101
33 0.0814 0.0591 0.2219 0.2486 0.2422 -0.0925 1.101 1.53
34 0 0 0 0 0 0 1.53 1.501
35 0.2486 0.2422 -0.0925 0.0814 0.0591 0.2219 1.53 1.101
36 -0.0732 0 0 -0.0732 0 0 1.53 1.53

MiddleBondTorsion Coeffs

1 27.5989 -2.312 0 1.417
2 0 3.9421 0 1.417
3 0 -1.1521 0 1.417
4 0 9.1792 0 1.417
5 0 4.8228 0 1.417
6 0 0 0 1.501
7 0 0 0 1.501
8 0 0 0 1.34
9 0.8558 6.3911 0 1.34
10 0 3.9421 0 1.417
11 0 9.1792 0 1.417
12 -5.5679 1.4083 0.301 1.501
13 0 0 0 1.501
14 0 0 0 1.53
15 -14.261 -0.5322 -0.4864 1.53
16 -14.879 -3.6581 -0.3138 1.53
17 0 0 0 1.53
18 -14.879 -3.6581 -0.3138 1.53
19 -17.787 -7.1877 0 1.53
20 0 3.9421 0 1.417
21 0 9.1792 0 1.417
22 -5.5679 1.4083 0.301 1.501
23 0 0 0 1.501
24 0 0 0 1.53
25 0 0 0 1.53
26 -14.261 -0.5322 -0.4864 1.53
27 -14.879 -3.6581 -0.3138 1.53
28 0 0 0 1.53
29 -14.879 -3.6581 -0.3138 1.53
30 -17.787 -7.1877 0 1.53
31 0 0 0 1.53
32 -14.261 -0.5322 -0.4864 1.53
33 -14.879 -3.6581 -0.3138 1.53
34 0 0 0 1.53
35 -14.879 -3.6581 -0.3138 1.53
36 -17.787 -7.1877 0 1.53

BondBond13 Coeffs

1 53 1.417 1.417
2 0.8743 1.0982 1.501
3 -6.2741 1.417 1.0982
4 2.5085 1.417 1.501
5 -1.7077 1.0982 1.0982
6 0 1.417 1.0883
7 0 1.417 1.34
8 0 1.501 1.0883
9 0 1.0883 1.0883
10 0.8743 1.0982 1.501
11 2.5085 1.417 1.501
12 -3.4826 1.417 1.101
13 0 1.417 1.53
14 0 1.501 1.101
15 0 1.101 1.101
16 0 1.53 1.101
17 0 1.501 1.53
18 0 1.101 1.53
19 0 1.53 1.53
20 0.8743 1.0982 1.501
21 2.5085 1.417 1.501
22 -3.4826 1.417 1.101
23 0 1.417 1.53
24 0 1.501 1.101
25 0 1.501 1.53
26 0 1.101 1.101
27 0 1.101 1.53
28 0 1.53 1.501
29 0 1.53 1.101
30 0 1.53 1.53
31 0 1.101 1.501
32 0 1.101 1.101
33 0 1.101 1.53
34 0 1.53 1.501
35 0 1.53 1.101
36 0 1.53 1.53

AngleTorsion Coeffs

1 1.9767 1.0239 0 1.9767 1.0239 0 118.9 118.9
2 0 3.4601 0 0 -0.1242 0 117.94 120.05
3 0 2.5014 0 0 2.7147 0 118.9 117.94
4 0 3.8987 0 0 -4.4683 0 118.9 120.05
5 0 2.4501 0 0 2.4501 0 117.94 117.94
6 0 0 0 0 0 0 120.05 111
7 0 0 0 0 0 0 120.05 108.4
8 0 0 0 0 0 0 108.4 124.88
9 -1.8911 3.254 0 -1.8911 3.254 0 124.88 124.88
10 0 3.4601 0 0 -0.1242 0 117.94 120.05
11 0 3.8987 0 0 -4.4683 0 118.9 120.05
12 0.2251 0.6548 0.1237 4.6266 0.1632 0.0461 120.05 111
13 0 0 0 0 0 0 120.05 108.4
14 0 0 0 0 0 0 108.4 110.77
15 -0.8085 0.5569 -0.2466 -0.8085 0.5569 -0.2466 110.77 110.77
16 -0.2454 0 -0.1136 0.3113 0.4516 -0.1988 112.67 110.77
17 0 0 0 0 0 0 108.4 112.67
18 0.3113 0.4516 -0.1988 -0.2454 0 -0.1136 110.77 112.67
19 0.3886 -0.3139 0.1389 0.3886 -0.3139 0.1389 112.67 112.67
20 0 3.4601 0 0 -0.1242 0 117.94 120.05
21 0 3.8987 0 0 -4.4683 0 118.9 120.05
22 0.2251 0.6548 0.1237 4.6266 0.1632 0.0461 120.05 111
23 0 0 0 0 0 0 120.05 108.4
24 0 0 0 0 0 0 108.4 110.77
25 0 0 0 0 0 0 108.4 112.67
26 -0.8085 0.5569 -0.2466 -0.8085 0.5569 -0.2466 110.77 110.77
27 0.3113 0.4516 -0.1988 -0.2454 0 -0.1136 110.77 112.67
28 0 0 0 0 0 0 112.67 108.4
29 -0.2454 0 -0.1136 0.3113 0.4516 -0.1988 112.67 110.77
30 0.3886 -0.3139 0.1389 0.3886 -0.3139 0.1389 112.67 112.67
31 0 0 0 0 0 0 110.77 108.4
32 -0.8085 0.5569 -0.2466 -0.8085 0.5569 -0.2466 110.77 110.77
33 0.3113 0.4516 -0.1988 -0.2454 0 -0.1136 110.77 112.67
34 0 0 0 0 0 0 112.67 108.4
35 -0.2454 0 -0.1136 0.3113 0.4516 -0.1988 112.67 110.77
36 0.3886 -0.3139 0.1389 0.3886 -0.3139 0.1389 112.67 112.67

Improper Coeffs # class2/omp

1 0 0
2 4.8912 0
3 7.8153 0
4 0 0
5 2.8561 0
6 7.8153 0
7 0 0
8 0 0
9 7.8153 0
10 0 0

AngleAngle Coeffs

1 0 0 0 118.9 118.9 118.9
2 0 0 0 118.9 117.94 117.94
3 0 0 0 118.9 120.05 120.05
4 0 0 0 111 124.88 108.4
5 0 0 0 115.49 124.88 124.88
6 0 0 0 118.9 120.05 120.05
7 0 0 0 107.66 110.77 110.77
8 0 0 0 111 110.77 108.4
9 0 0 0 118.9 120.05 120.05
10 0 0 0 111 110.77 108.4

Atoms # full

970 52 2 0.1288 1.5431180090104257 25.199465324025162 -19.692158024222643 1 -1 1
2004 117 3 -0.0182 -1.2509433518328879 -25.923796095635414 -24.904760460378434 0 0 1
873 46 1 -0.1134 2.7079589043717105 -24.846293497795134 -22.431287568078826 -1 0 0
871 46 1 -0.1734 2.5426020818112316 -24.31914494829683 -21.145568672886082 -1 0 0
872 46 2 0.1403 2.7812740714315813 -25.04667723836694 -20.342193513123206 -1 0 0
978 53 2 0.1237 -1.2356311566184504 -19.16224459125441 -16.839590741059016 0 0 1
977 53 1 -0.129 -1.9035868921388677 -19.85195289146072 -16.201743226988988 0 0 1
987 53 1 -0.1734 12.248452584824191 -19.616503595747343 -16.040617475813008 -1 0 1
869 46 1 -0.129 2.160313954445171 -23.02219846228252 -20.84235632629789 -1 0 0
870 46 2 0.1237 2.0107591556702795 -22.5783128940851 -19.769280066593154 -1 0 0
2013 117 2 0.0516 -1.4656501745759676 26.09931761738057 -23.858013602144275 0 -1 1
875 46 1 -0.1734 2.3811557619818657 -23.963448591630762 -23.49569964515334 -1 0 0
867 46 1 0.0266 2.0255654742962537 -22.13872439986024 -21.85311108490317 -1 0 0
865 46 1 -0.129 2.0465831188996537 -22.634994472019834 -23.17354558269735 -1 0 0
968 52 2 0.1403 2.108071444167911 23.963951910367438 -21.78234507195342 1 -1 1
989 53 2 0.0516 0.6539611867735515 -21.09924178398869 -14.83231006479858 0 0 1
967 52 1 -0.1734 2.6977512528974255 23.907757449141677 -20.84238442817354 1 -1 1
868 46 3 -0.0182 1.7648681446237604 -20.685003395121896 -21.706577973664885 -1 0 0
874 46 2 0.1288 2.9860306928624167 -25.89388392272426 -22.47530223712459 -1 0 0
2002 117 2 0.1237 -1.3881204114634895 -23.99078031287841 -22.84648538418074 0 0 1
2001 117 1 -0.129 -1.2793597961386476 -23.615878426519178 -23.84535597687379 0 0 1
2003 117 1 0.0266 -1.3874337267602996 -24.46563856839809 -25.009720143389163 0 0 1
2011 117 1 -0.1734 -1.4496863796322614 -22.221047983308612 -24.145584926453196 0 0 1
2012 117 2 0.1403 -1.6733581195832616 -21.521727044361022 -23.25513848349674 0 0 1
2005 117 1 -0.129 -1.4350126712955358 -23.96560629565521 26.023094098398268 0 0 0
988 53 2 0.1403 11.754801706525422 -18.697425727095908 -16.338041338256076 -1 0 1
2015 117 2 0.0354 0.27417899072597296 24.842418469025706 -25.32866930255607 0 -1 1
2014 117 4 -0.0696 -0.366872679932373 25.712022423415863 -25.6159633548006 0 -1 1
2838 169 2 0.1237 4.459483325953015 -22.97884243877319 -20.976317491642682 -1 0 0
2040 119 2 0.1403 11.877552597512935 -26.1531323795401 -22.377846662091088 0 0 0
2038 119 2 0.1237 10.485146559752017 -25.508683909235558 -24.22887441102924 0 0 0
2035 119 1 0.0266 10.485698799296214 -23.490306574636865 -23.611464352500487 0 0 0
2036 119 3 -0.0182 9.651332331719232 -23.091240730654093 -24.81475318471641 0 0 0
2045 119 2 0.0516 8.763825371869425 -22.41023236241085 -24.660346621669532 0 0 0
2034 119 2 0.1237 10.947161948097031 -21.429317222601675 -22.701272129148393 0 0 0
2033 119 1 -0.129 11.105335229894072 -22.521523959060893 -22.678866762994744 0 0 0
2037 119 1 -0.129 10.725793488872016 -24.83584453767474 -23.45630838529027 0 0 0
2046 119 4 -0.0696 10.561367776005405 -22.763103182801064 -25.75316819838028 0 0 0
2043 119 1 -0.1734 11.62663295953017 -22.936651157026063 -21.508897043816113 0 0 0
2041 119 1 -0.1134 11.816084930478288 -24.245714133114163 -21.348453112567867 0 0 0
2039 119 1 -0.1734 11.409145533561608 -25.23145806664311 -22.331116900085295 0 0 0
2837 169 1 -0.129 4.8738420976896535 -21.887916520026693 -21.228323888820878 -1 0 0
2044 119 2 0.1403 11.831428026988023 -22.19487212616292 -20.630990081309005 0 0 0
2042 119 2 0.1288 12.24692793126673 -24.7807441141534 -20.450899060596477 0 0 0
2839 169 1 -0.1734 5.500481655325792 -21.80526023731127 -22.49453015395926 -1 0 0
2840 169 2 0.1403 5.45280705324348 -22.49654895620456 -23.339460115807345 -1 0 0
1787 103 1 -0.1734 4.233424848280111 -20.53745083223294 26.158679074406336 -1 0 0
1788 103 2 0.1403 3.5351740827281426 -20.005088317540093 -25.58198482952547 -1 0 1
1777 103 1 -0.129 5.156466860167845 -19.862187785523194 25.3992473167356 -1 0 0
1778 103 2 0.1237 5.062002191476159 -18.836057642174207 25.254943291305867 -1 0 0
880 46 2 0.0354 -0.13998417347272127 -21.60227946964561 -21.212054612786726 -1 0 0
221 5 2 0.0516 10.401013043973268 -18.014072874313126 -19.62115175524923 -2 0 1
2239 131 2 0.0354 7.365614968160696 -18.963818559400117 -24.98962675216414 1 0 1
219 5 1 -0.1734 12.202823458979411 -17.217750773161995 -23.626208689790822 -2 0 1
879 46 2 0.0354 0.2940377787365581 -20.017076171691834 -20.256777627794758 -1 0 0
878 46 4 -0.0696 0.6537834439663625 -20.73564443836462 -21.004167242970937 -1 0 0
877 46 2 0.0516 2.578662685411689 -19.985703525192545 -21.547341354902514 -1 0 0
735 37 2 0.0354 4.053457528632376 -17.40227791260758 24.13238672079171 0 0 0
3251 195 1 0.0266 1.480946899285887 -16.29862794059135 -21.804203982057047 0 0 0
210 5 2 0.1237 12.197283218841623 -16.106791415892193 -21.73898529022004 -2 0 1
209 5 1 -0.129 11.84714082217154 -16.99101703210105 -22.286056147617366 -2 0 1
3261 195 2 0.0516 1.3222746884501386 -17.378325552194386 -23.44215965134426 0 0 0
3252 195 3 -0.0182 1.982677327403575 -16.565865889494642 -23.20004800055031 0 0 0
211 5 1 0.0266 10.793749841352525 -17.644304137491492 -21.706692193916716 -2 0 1
212 5 3 -0.0182 10.220056122536379 -17.29387342023138 -20.298898936954036 -2 0 1
3263 195 2 0.0354 3.8206057508800377 -17.45255902590785 -24.09521110430482 0 0 0
3264 195 2 0.0354 3.975437996186406 -16.028336278067155 -22.843917811692336 0 0 0
3262 195 4 -0.0696 3.309893190844256 -16.760751735833193 -23.321913951097507 0 0 0
256 7 2 0.0354 -1.0411595520666255 -12.806596726617535 -25.923083019327827 0 0 0
3250 195 2 0.1237 -0.11371550827662916 -17.77836193998356 -21.988836614437005 0 0 0
736 37 2 0.0354 4.794829896989698 -16.040331195209216 23.206161669686896 0 0 0
734 37 4 -0.0696 4.518038909457931 -16.39045245742367 24.147393314761015 0 0 0
2240 131 2 0.0354 7.839931986416821 -17.652287177655023 -23.859108298062527 1 0 1
2238 131 4 -0.0696 7.620673794522888 -17.888929004109023 -24.964913973147677 1 0 1
223 5 2 0.0354 8.123199873348819 -16.734425280591548 -19.76750576245893 -2 0 1
2232 131 2 0.1403 10.7076864780463 -13.66398439860038 25.86378754041408 1 0 0
224 5 2 0.0354 8.76983315846635 -15.839837174467146 -21.107549783842867 -2 0 1
215 5 1 -0.1734 10.726554949817178 -19.201149413358056 -23.66633054931193 -2 0 1
2230 131 2 0.1237 8.587513563853001 -14.617994194143556 -25.14272605012924 1 0 1
2227 131 1 0.0266 8.741791428212503 -16.378555250292727 26.101035651051152 1 0 0
2229 131 1 -0.129 9.199002030792784 -15.118746211502842 -25.928564924809937 1 0 1
213 5 1 -0.129 10.189108615021132 -18.738649634444705 -22.39561120489689 -2 0 1
214 5 2 0.1237 9.431331316879335 -19.32715986532316 -21.887140857302924 -2 0 1
222 5 4 -0.0696 9.019356381835479 -16.64496710051507 -20.349769779771957 -2 0 1
2237 131 2 0.0516 6.954939546257088 -17.143781144147844 25.550667575253147 1 0 0
2228 131 3 -0.0182 7.3501548879724865 -16.86513762446545 -25.84296604977167 1 0 1
806 42 2 0.1237 6.975884304804285 -14.325847169228448 -23.2515486683877 0 0 0
2833 169 1 -0.129 5.789818719550369 -19.801903881697363 -20.52705347519308 -1 0 0
2843 169 1 -0.1734 6.44449525325666 -19.750901733150187 -21.7467874979374 -1 0 0
2841 169 1 -0.1134 6.334990772371186 -20.726030687208613 -22.738259832653576 -1 0 0
2842 169 2 0.1288 6.963834026494768 -20.511548374450626 -23.5850531853937 -1 0 0
2844 169 2 0.1403 7.22601239216684 -18.911604031073832 -21.82874910030142 -1 0 0
2231 131 1 -0.1734 10.439962357029442 -14.69111134744662 25.871811059931453 1 0 0
216 5 2 0.1403 10.325920053498818 -19.90756779547569 -24.338235379804974 -2 0 1
1470 83 4 -0.0696 12.94693084689856 -14.956517345484517 -19.314675366706815 0 0 1
1471 83 2 0.0354 -1.5745535737786467 -15.08986138320647 -19.703960853949155 1 0 1
1472 83 2 0.0354 12.823876845012862 -15.571898314607596 -18.389719447307876 0 0 1
260 8 3 -0.0182 2.894562348554463 -8.368166311001644 -25.757419221253073 0 0 1
1104 60 2 0.0354 1.7012094052980116 -8.42658228059614 -21.102605239312915 0 0 0
254 7 4 -0.0696 -0.9928747625365482 -13.865902759702351 -25.463267859902164 0 0 0
243 7 1 0.0266 -0.3523061783275419 -13.036092124053791 -23.258927597938495 0 0 0
242 7 2 0.1237 1.4858087582065422 -13.00057954430681 -24.53231378911865 0 0 0
269 8 2 0.0516 3.479462432700661 -7.523314020734428 26.05781574264236 0 0 0
247 7 1 -0.1734 -0.2100290586431216 -11.751006580305766 -21.075688333169744 0 0 0
245 7 1 -0.129 -0.8709720148660759 -12.626242746759 -22.03626849900983 0 0 0
251 7 1 -0.1734 1.752838910070698 -12.13406709806283 -22.492190609609448 0 0 0
241 7 1 -0.129 1.0359540964455407 -12.755405860326949 -23.566525584687405 0 0 0
249 7 1 -0.1134 1.1206970335141422 -11.652912443047624 -21.33158364792111 0 0 0
252 7 2 0.1403 2.853323323044785 -12.030154621409308 -22.400660723443714 0 0 0
246 7 2 0.1237 -1.993751630114938 -12.740305209059992 -22.0253613851387 0 0 0
248 7 2 0.1403 -0.5940362745562414 -11.27565725214885 -20.160848498317968 0 0 0
250 7 2 0.1288 1.9498908084790172 -11.296012008551807 -20.64540337617306 0 0 0
722 37 2 0.1237 3.485018652464547 -13.379429998069353 25.727921890874907 0 0 0
244 7 3 -0.0182 -1.2209926048194157 -13.984522722706746 -24.110582728714583 0 0 0
1469 83 2 0.0516 11.978341895167057 -13.323679678384842 -20.358623357016146 0 0 1
1460 83 3 -0.0182 11.927679334262564 -14.08610368976382 -19.532562600628104 0 0 1
805 42 1 -0.129 6.656130850402515 -13.267924517759715 -23.04533439764562 0 0 0
807 42 1 -0.1734 6.490150848017876 -12.3983384007226 -24.033923940251473 0 0 0
802 42 2 0.1237 5.939667438506715 -10.967292706053277 -20.540986212635165 0 0 0
801 42 1 -0.129 6.068119181603891 -11.420144845318797 -21.545734684699312 0 0 0
811 42 1 -0.1734 5.718494589984437 -10.615033684281725 -22.640520226607983 0 0 0
809 42 1 -0.1134 5.971331292248104 -11.108142485306852 -23.942506380525167 0 0 0
812 42 2 0.1403 5.355179372433952 -9.527647871107694 -22.682051200489752 0 0 0
804 42 3 -0.0182 6.969941516948089 -13.54695098001949 -20.45330986886022 0 0 0
803 42 1 0.0266 6.548006317248369 -12.803776365781493 -21.660949175275125 0 0 0
1115 61 1 -0.1734 10.532261487835516 -11.141636372585362 -22.32948034087452 -1 0 1
1113 61 1 -0.1134 10.126745558705814 -11.497961131587852 -21.015862171961878 -1 0 1
1114 61 2 0.1288 10.093101407258978 -12.503058644784886 -20.658588771501922 -1 0 1
808 42 2 0.1403 6.727398938287674 -12.868379521236198 -25.08230499949019 0 0 0
1116 61 2 0.1403 10.40680545552627 -11.814704216238997 -23.127166947490128 -1 0 1
1110 61 2 0.1237 10.412459993137817 -8.436004034752969 -19.385190936697448 -1 0 1
1112 61 2 0.1403 9.71521733382989 -11.08660693115679 -18.986176733427392 -1 0 1
1111 61 1 -0.1734 10.15257442139062 -10.630943725308656 -19.952249574897923 -1 0 1
1109 61 1 -0.129 10.365081663592472 -9.26803484479684 -20.18083931103603 -1 0 1
810 42 2 0.1288 5.623613758877659 -10.612106628804558 -24.915155938083842 0 0 0
2591 153 2 0.0354 8.967896245164832 -11.132179694418 25.46572463399193 0 0 0
2592 153 2 0.0354 9.109733599011562 -9.373348628359315 25.3232487747215 0 0 0
2590 153 4 -0.0696 9.290304382143194 -10.323363035188335 24.881707984234943 0 0 0
270 8 4 -0.0696 2.1852086673550213 -8.184491956975835 -24.630535478441125 0 0 1
271 8 2 0.0354 2.0147860565304834 -7.223044396709154 -24.133812329386863 0 0 1
1103 60 2 0.0354 2.638598114119328 -7.2539019177001975 -21.774443237358387 0 0 0
1102 60 4 -0.0696 1.603997642033873 -7.577152100681545 -21.752004035793252 0 0 0
1100 60 2 0.1403 -1.8739159570143018 -9.368763739819428 -18.96107648923225 0 0 0
1091 60 1 0.0266 -0.4579207779504768 -7.026426127501636 -20.96530038130494 0 0 0
1090 60 2 0.1237 -0.626619359202196 -9.094437404222475 -21.407038806122614 0 0 0
1089 60 1 -0.129 -0.9356420043803768 -8.257122453548703 -20.71473652529637 0 0 0
1099 60 1 -0.1734 -1.4849914554156887 -8.510832451466522 -19.45012543098154 0 0 0
1092 60 3 -0.0182 0.5716819822573865 -6.8346622598823314 -22.082175342320106 0 0 0
1962 114 2 0.1288 1.4054526253500026 -4.509554993104123 -25.868612993257866 0 0 1
1961 114 1 -0.1134 1.6281333203044293 -4.142528263575683 25.52375331768216 0 0 0
1101 60 2 0.0516 0.5271493779867409 -5.902244286620292 -22.63257164840536 0 0 0
1963 114 1 -0.1734 0.9770965718217575 -3.0417310193653764 24.924808323487404 0 0 0
1950 113 4 -0.0696 11.949770346176159 -1.8246565381026423 -23.048437593616324 0 0 0
1952 113 2 0.0354 11.948746602467269 -1.2694218683662204 -23.956231426061542 0 0 0
1106 61 2 0.1237 11.119601077693654 -9.289374747093529 -23.39883859564321 -1 0 1
1939 113 1 0.0266 12.175867840071906 -3.791017369436085 -24.118257304353584 0 0 0
1944 113 2 0.1403 12.13292983105738 -3.5170217940518476 24.85391516217167 0 0 -1
1943 113 1 -0.1734 12.337633377432947 -4.082391106250251 25.716756090228884 0 0 -1
1941 113 1 -0.129 11.952438695346112 -3.476578527629802 -25.430147588997727 0 0 0
1107 61 1 0.0266 10.663741950387733 -8.767643193172107 -21.454026178935514 -1 0 1
1105 61 1 -0.129 10.704909609410823 -9.713721641828336 -22.468658770367043 -1 0 1
1036 56 2 0.1403 8.489211333838263 -8.646625597014692 -24.072934986723855 1 0 1
1946 113 2 0.1288 -1.828001123113655 -5.557164528773728 25.068680299303928 1 0 -1
1945 113 1 -0.1134 13.154229936292568 -5.160817924073605 25.850303672918706 0 0 -1
1947 113 1 -0.1734 -2.1219666442908798 -5.628540260312626 -25.1475537796329 1 0 0
1948 113 2 0.1403 -1.3978643376339985 -6.412575144030226 -25.00032169822878 1 0 0
3031 181 1 -0.1734 5.682807518595076 -5.77184637424315 -22.802367590499706 1 0 0
3032 181 2 0.1403 6.138858483041354 -6.733012983774065 -22.46849166400891 1 0 0
1937 113 1 -0.129 12.985004265645449 -4.9653867567774785 -24.020172584554643 0 0 0
1938 113 2 0.1237 13.173733728524716 -5.235927149214355 -23.042044421843034 0 0 0
3027 181 1 0.0266 3.7370614353614116 -4.308916271652282 -22.458383210265765 1 0 0
3029 181 1 -0.129 4.600890446763759 -5.348456896904092 -21.999451815400008 1 0 0
3030 181 2 0.1237 4.14178165600675 -5.843153930732278 -21.112785617034852 1 0 0
3035 181 1 -0.1734 5.033316021182547 -4.299907760768019 -24.49004471781845 1 0 0
1940 113 3 -0.0182 11.59331692646249 -3.139965593531068 -22.979106189820005 0 0 0
3033 181 1 -0.1134 5.92575321575587 -5.255543510510792 -24.076312358978893 1 0 0
3034 181 2 0.1288 6.696106153476895 -5.5525014263604415 -24.79021100267449 1 0 0
1450 82 2 0.1288 7.240443586413741 -2.325361428752141 -24.42907454907288 0 0 0
1452 82 2 0.1403 7.942189330793966 -4.113920547643857 -22.896278269306066 0 0 0
1964 114 2 0.1403 0.042632436819377034 -2.7962152713607455 25.40247490889292 0 0 0
445 19 2 0.0516 -1.496122373049555 1.5568285338649828 25.232894100821763 0 0 0
436 19 3 -0.0182 -0.7921294545391281 1.0047920743732026 25.70680291143985 0 0 0
435 19 1 0.0266 -0.12376251995367753 1.7070366757032582 -25.461956697788683 0 0 1
1727 99 2 0.0354 6.019426596304414 3.2596251482868985 -19.684555170468162 0 0 0
1728 99 2 0.0354 5.9225730892550255 5.084751629763051 -19.831700853270096 0 0 0
1726 99 4 -0.0696 5.637532026383155 4.153466266022675 -20.28600187451948 0 0 0
434 19 2 0.1237 -1.8399496814527099 1.3151364764018978 -24.1918801588304 0 0 1
2269 133 2 0.0516 -2.291338531202026 3.3360318343171316 -20.119201236318098 1 0 0
1228 68 2 0.1403 1.5405795449552118 -0.4422226044665665 -23.307697578085605 -1 0 0
1218 68 2 0.1237 3.412675666246197 0.5029041585846741 -22.242413742432245 -1 0 0
446 19 4 -0.0696 -0.8953064062940921 -0.30660699762987204 25.82809057592031 0 0 0
447 19 2 0.0354 -1.6731168224601458 -0.9132544954965889 25.40079712019303 0 0 0
1836 106 2 0.1403 3.98504536195891 -0.60757793238624 -24.227855453298677 1 0 1
1835 106 1 -0.1734 4.454830503555831 -0.08848525387540264 -25.064621976586395 1 0 1
1834 106 2 0.1288 3.819648893678406 -1.8035047985070183 25.952271390658456 1 0 0
448 19 2 0.0354 -0.19800131846973962 -0.9437915689315124 -25.926928181205874 0 0 1
1942 113 2 0.1237 11.35763222270653 -2.4084565952240182 -25.57961157365402 0 0 0
3025 181 1 -0.129 4.022948046485921 -3.7776774925558247 -23.69919516733552 1 0 0
3026 181 2 0.1237 3.3523583789204596 -2.9526972088852648 -24.111059331420712 1 0 0
3036 181 2 0.1403 5.118588572309328 -3.9005414585675213 -25.54725376003316 1 0 0
1949 113 2 0.0516 11.834860790627168 -3.729080411388071 -22.05480100506444 0 0 0
1448 82 2 0.1403 7.911507353483527 0.06759220673413194 -24.07876271184861 0 0 0
1718 99 2 0.1237 7.412939039863326 5.116224790474674 -23.43177275799621 0 0 0
1447 82 1 -0.1734 8.056063596030802 -0.6686288879477592 -23.238296479451687 0 0 0
1449 82 1 -0.1134 7.834150694384672 -2.013581332315475 -23.553341555420445 0 0 0
1446 82 2 0.1237 8.860849587438603 0.8488104819593498 -21.773963298962286 0 0 0
1445 82 1 -0.129 8.664946067949167 -0.2578372111034227 -22.078080310932226 0 0 0
1451 82 1 -0.1734 8.036151791250033 -2.9888728796582007 -22.570647375348095 0 0 0
1443 82 1 0.0266 9.017767137667494 -1.224455699825757 -21.164278066820845 0 0 0
1441 82 1 -0.129 8.58826258888706 -2.5601767406240423 -21.412232541995294 0 0 0
1454 82 4 -0.0696 9.422422049322078 -0.1415366435479241 -19.13867095573933 0 0 0
1456 82 2 0.0354 8.57416097263288 0.5601327670532 -19.249239233186874 0 0 0
1919 111 2 0.0354 6.175242672462666 -1.740250028513173 21.640380158056438 0 0 0
438 19 2 0.1237 1.6863747947862051 2.493676893158441 25.716829153259276 0 0 0
433 19 1 -0.129 -0.8731419706494454 1.686681556502298 -24.27224966329323 0 0 1
443 19 1 -0.1734 -0.2235545290322869 2.2609892196659493 -23.16413826237354 0 0 1
442 19 2 0.1288 1.4858750824045628 3.241657879795406 -22.41313551571285 0 0 1
437 19 1 -0.129 1.0596621454519446 2.426460067037541 -25.586899323309378 0 0 1
1724 99 2 0.1403 3.1076892471077473 7.613523766787241 -22.75945664344255 0 0 0
441 19 1 -0.1134 1.1305842487440865 2.6898938355053255 -23.223453646941675 0 0 1
440 19 2 0.1403 2.822511903840157 3.1553006444123466 -24.45483226117729 0 0 1
439 19 1 -0.1734 1.7448182305896305 2.812347680793142 -24.468136874763328 0 0 1
1714 99 2 0.1237 3.5347788568766414 5.618558693809181 -21.460136676354427 0 0 0
2815 167 2 0.0354 2.4868602972273313 6.824541906162364 25.657042900900908 -1 -1 -1
444 19 2 0.1403 -0.9434574599566076 2.264651287908182 -22.311583261526497 0 0 1
2662 158 2 0.1237 2.587870744185658 7.02366711671157 -19.731140223247248 0 0 0
2814 167 4 -0.0696 2.9699621390522353 7.380113527626867 -25.884874869040623 -1 -1 0
2380 140 2 0.1403 -0.04407155958245511 6.720492982198349 -18.378960367838843 0 0 0
2767 164 2 0.0354 1.3416618430565113 7.980942162618007 24.082050339463944 2 0 0
2816 167 2 0.0354 4.00796833663788 7.442035780755907 -25.78915612740316 -1 -1 0
2378 140 2 0.1288 0.6092414921898511 5.245387311129228 -20.36063090330082 0 0 0
2376 140 2 0.1403 -0.6786897432299629 5.604524126572702 -22.63144195918488 0 0 0
2375 140 1 -0.1734 -0.8958152149688584 6.1867342919467765 -21.725912590154827 0 0 0
2377 140 1 -0.1134 -0.2247393146964366 6.050686046939029 -20.532748194017003 0 0 0
2379 140 1 -0.1734 -0.5044864969170292 6.8147694593626955 -19.388185563891632 0 0 0
1715 99 1 0.0266 5.446284931867942 5.281622841408296 -22.304482144471475 0 0 0
1716 99 3 -0.0182 5.464443244371645 4.009159232880204 -21.520288449379457 0 0 0
1719 99 1 -0.1734 6.319775134814134 7.056552080038909 -23.721517532030205 0 0 0
1720 99 2 0.1403 7.167576493854549 7.477984539592138 -24.266052271847155 0 0 0