LAMMPS data file via write_data, version 29 Aug 2024, timestep = 25000, units = real

3392 atoms
7 atom types
3654 bonds
13 bond types
6372 angles
22 angle types
10195 dihedrals
36 dihedral types
1460 impropers
10 improper types

-2.316452861 13.210439682 xlo xhi
-26.159999999999997 26.159999999999997 ylo yhi
-26.159999999999997 26.159999999999997 zlo zhi

Atom Type Labels

1 cp
2 hc
3 c=1
4 c=
5 c1
6 c2
7 c3

Bond Type Labels

1 cp-cp
2 cp-hc
3 cp-c1
4 hc-c=1
5 c=1-c=
6 hc-c=
7 cp-c3
8 hc-c3
9 c3-c2
10 hc-c2
11 cp-c=1
12 hc-c1
13 c1-c2

Angle Type Labels

1 cp-cp-cp
2 cp-cp-hc
3 cp-cp-c1
4 cp-c1-hc
5 cp-c1-c2
6 hc-c=1-c=
7 hc-c=-c=1
8 hc-c=-hc
9 cp-cp-c3
10 cp-c3-hc
11 cp-c3-c2
12 hc-c3-c2
13 c3-c2-c1
14 hc-c2-c3
15 hc-c2-hc
16 c1-c2-c1
17 cp-cp-c=1
18 cp-c=1-hc
19 cp-c=1-c=
20 hc-c2-c1
21 hc-c1-c2
22 c2-c1-c2

Dihedral Type Labels

1 cp-cp-cp-cp
2 hc-cp-cp-c1
3 cp-cp-cp-hc
4 cp-cp-cp-c1
5 hc-cp-cp-hc
6 cp-cp-c=1-hc
7 cp-cp-c=1-c=
8 cp-c=1-c=-hc
9 hc-c=1-c=-hc
10 hc-cp-cp-c3
11 cp-cp-cp-c3
12 cp-cp-c1-hc
13 cp-cp-c1-c2
14 cp-c1-c2-hc
15 hc-c1-c2-hc
16 c2-c1-c2-hc
17 cp-c1-c2-c1
18 hc-c1-c2-c1
19 c2-c1-c2-c1
20 hc-cp-cp-c=1
21 cp-cp-cp-c=1
22 cp-cp-c3-hc
23 cp-cp-c3-c2
24 cp-c3-c2-hc
25 cp-c3-c2-c1
26 hc-c3-c2-hc
27 hc-c3-c2-c1
28 c3-c2-c1-cp
29 c3-c2-c1-hc
30 c3-c2-c1-c2
31 hc-c2-c1-cp
32 hc-c2-c1-hc
33 hc-c2-c1-c2
34 c1-c2-c1-cp
35 c1-c2-c1-hc
36 c1-c2-c1-c2

Improper Type Labels

1 cp-cp-cp-cp
2 cp-cp-cp-hc
3 cp-cp-cp-c1
4 cp-c=1-hc-c=
5 hc-c=-hc-c=1
6 cp-cp-cp-c3
7 hc-c2-hc-c1
8 cp-c1-hc-c2
9 cp-cp-cp-c=1
10 cp-c3-hc-c2

Masses

1 12.0112
2 1.00797
3 12.0112
4 12.0112
5 12.0112
6 12.0112
7 12.0112

Pair Coeffs # lj/class2/coul/long/omp

1 0.064 4.01
2 0.02 2.7
3 0.064 4.01
4 0.064 3.9
5 0.054 4.01
6 0.054 4.01
7 0.054 4.01

Bond Coeffs # class2/omp

1 1.417 470.836 -627.618 1327.63
2 1.0982 372.825 -803.453 894.317
3 1.501 321.902 -521.821 572.163
4 1.0883 365.768 -725.54 781.662
5 1.34 543.99 -1238.2 1644.03
6 1.0883 365.768 -725.54 781.662
7 1.501 321.902 -521.821 572.163
8 1.101 345 -691.89 844.6
9 1.53 299.67 -501.77 679.81
10 1.101 345 -691.89 844.6
11 1.501 321.902 -521.821 572.163
12 1.101 345 -691.89 844.6
13 1.53 299.67 -501.77 679.81

Angle Coeffs # class2/omp

1 118.9 61.0226 -34.9931 0
2 117.94 35.1558 -12.4682 0
3 120.05 44.7148 -22.7352 0
4 111 44.3234 -9.4454 0
5 108.4 43.9594 -8.3924 -9.3379
6 124.88 35.2766 -17.774 -1.6215
7 124.88 35.2766 -17.774 -1.6215
8 115.49 29.6363 -12.4853 -6.2218
9 120.05 44.7148 -22.7352 0
10 111 44.3234 -9.4454 0
11 108.4 43.9594 -8.3924 -9.3379
12 110.77 41.453 -10.604 5.129
13 112.67 39.516 -7.443 -9.5583
14 110.77 41.453 -10.604 5.129
15 107.66 39.641 -12.921 -2.4318
16 112.67 39.516 -7.443 -9.5583
17 120.05 44.7148 -22.7352 0
18 111 44.3234 -9.4454 0
19 108.4 43.9594 -8.3924 -9.3379
20 110.77 41.453 -10.604 5.129
21 110.77 41.453 -10.604 5.129
22 112.67 39.516 -7.443 -9.5583

BondBond Coeffs

1 68.2856 1.417 1.417
2 1.0795 1.417 1.0982
3 12.0676 1.417 1.501
4 2.9168 1.501 1.0883
5 0 1.501 1.34
6 10.1047 1.0883 1.34
7 10.1047 1.0883 1.34
8 4.8506 1.0883 1.0883
9 12.0676 1.417 1.501
10 2.9168 1.501 1.101
11 0 1.501 1.53
12 3.3872 1.101 1.53
13 0 1.53 1.53
14 3.3872 1.101 1.53
15 5.3316 1.101 1.101
16 0 1.53 1.53
17 12.0676 1.417 1.501
18 2.9168 1.501 1.101
19 0 1.501 1.53
20 3.3872 1.101 1.53
21 3.3872 1.101 1.53
22 0 1.53 1.53

BondAngle Coeffs

1 28.8708 28.8708 1.417 1.417
2 20.0033 24.2183 1.417 1.0982
3 31.0771 47.0579 1.417 1.501
4 26.4608 11.7717 1.501 1.0883
5 0 0 1.501 1.34
6 19.0592 23.3588 1.0883 1.34
7 19.0592 23.3588 1.0883 1.34
8 17.9795 17.9795 1.0883 1.0883
9 31.0771 47.0579 1.417 1.501
10 26.4608 11.7717 1.501 1.101
11 0 0 1.501 1.53
12 11.421 20.754 1.101 1.53
13 8.016 8.016 1.53 1.53
14 11.421 20.754 1.101 1.53
15 18.103 18.103 1.101 1.101
16 8.016 8.016 1.53 1.53
17 31.0771 47.0579 1.417 1.501
18 26.4608 11.7717 1.501 1.101
19 0 0 1.501 1.53
20 11.421 20.754 1.101 1.53
21 11.421 20.754 1.101 1.53
22 8.016 8.016 1.53 1.53

Dihedral Coeffs # class2/omp

1 8.3667 0 1.1932 0 0 0
2 0 0 1.559 0 0 0
3 0 0 3.9661 0 0 0
4 0 0 4.4072 0 0 0
5 0 0 1.8769 0 0 0
6 0 0 0 0 0 0
7 0 0 0 0 0 0
8 0 0 0 0 0 0
9 0 0 4.8974 0 0 0
10 0 0 1.559 0 0 0
11 0 0 4.4072 0 0 0
12 -0.2801 0 -0.0678 0 -0.0122 0
13 -0.2802 0 -0.0678 0 -0.0122 0
14 -0.0228 0 0.028 0 -0.1863 0
15 -0.1432 0 0.0617 0 -0.1083 0
16 0 0 0.0316 0 -0.1681 0
17 0 0 0 0 0 0
18 0 0 0.0316 0 -0.1681 0
19 0 0 0.0514 0 -0.143 0
20 0 0 1.559 0 0 0
21 0 0 4.4072 0 0 0
22 -0.2801 0 -0.0678 0 -0.0122 0
23 -0.2802 0 -0.0678 0 -0.0122 0
24 -0.0228 0 0.028 0 -0.1863 0
25 0 0 0 0 0 0
26 -0.1432 0 0.0617 0 -0.1083 0
27 0 0 0.0316 0 -0.1681 0
28 0 0 0 0 0 0
29 0 0 0.0316 0 -0.1681 0
30 0 0 0.0514 0 -0.143 0
31 -0.0228 0 0.028 0 -0.1863 0
32 -0.1432 0 0.0617 0 -0.1083 0
33 0 0 0.0316 0 -0.1681 0
34 0 0 0 0 0 0
35 0 0 0.0316 0 -0.1681 0
36 0 0 0.0514 0 -0.143 0

AngleAngleTorsion Coeffs

1 0 118.9 118.9
2 4.4444 117.94 120.05
3 -4.8141 118.9 117.94
4 -14.4097 118.9 120.05
5 0.3598 117.94 117.94
6 0 120.05 111
7 0 120.05 108.4
8 0 108.4 124.88
9 -7.0058 124.88 124.88
10 4.4444 117.94 120.05
11 -14.4097 118.9 120.05
12 -5.8888 120.05 111
13 0 120.05 108.4
14 0 108.4 110.77
15 -12.564 110.77 110.77
16 -16.164 112.67 110.77
17 0 108.4 112.67
18 -16.164 110.77 112.67
19 -22.045 112.67 112.67
20 4.4444 117.94 120.05
21 -14.4097 118.9 120.05
22 -5.8888 120.05 111
23 0 120.05 108.4
24 0 108.4 110.77
25 0 108.4 112.67
26 -12.564 110.77 110.77
27 -16.164 110.77 112.67
28 0 112.67 108.4
29 -16.164 112.67 110.77
30 -22.045 112.67 112.67
31 0 110.77 108.4
32 -12.564 110.77 110.77
33 -16.164 110.77 112.67
34 0 112.67 108.4
35 -16.164 112.67 110.77
36 -22.045 112.67 112.67

EndBondTorsion Coeffs

1 -0.1185 6.3204 0 -0.1185 6.3204 0 1.417 1.417
2 0 -0.4879 0 0 -1.797 0 1.0982 1.501
3 0 -6.8958 0 0 -0.4669 0 1.417 1.0982
4 0 -0.6918 0 0 0.2421 0 1.417 1.501
5 0 -0.689 0 0 -0.689 0 1.0982 1.0982
6 0 0 0 0 0 0 1.417 1.0883
7 0 0 0 0 0 0 1.417 1.34
8 0 0 0 0 0 0 1.501 1.0883
9 0.7129 0.5161 0 0.7129 0.5161 0 1.0883 1.0883
10 0 -0.4879 0 0 -1.797 0 1.0982 1.501
11 0 -0.6918 0 0 0.2421 0 1.417 1.501
12 -0.5835 1.122 0.3978 1.3997 0.7756 0 1.417 1.101
13 0 0 0 0 0 0 1.417 1.53
14 0 0 0 0 0 0 1.501 1.101
15 0.213 0.312 0.0777 0.213 0.312 0.0777 1.101 1.101
16 0.2486 0.2422 -0.0925 0.0814 0.0591 0.2219 1.53 1.101
17 0 0 0 0 0 0 1.501 1.53
18 0.0814 0.0591 0.2219 0.2486 0.2422 -0.0925 1.101 1.53
19 -0.0732 0 0 -0.0732 0 0 1.53 1.53
20 0 -0.4879 0 0 -1.797 0 1.0982 1.501
21 0 -0.6918 0 0 0.2421 0 1.417 1.501
22 -0.5835 1.122 0.3978 1.3997 0.7756 0 1.417 1.101
23 0 0 0 0 0 0 1.417 1.53
24 0 0 0 0 0 0 1.501 1.101
25 0 0 0 0 0 0 1.501 1.53
26 0.213 0.312 0.0777 0.213 0.312 0.0777 1.101 1.101
27 0.0814 0.0591 0.2219 0.2486 0.2422 -0.0925 1.101 1.53
28 0 0 0 0 0 0 1.53 1.501
29 0.2486 0.2422 -0.0925 0.0814 0.0591 0.2219 1.53 1.101
30 -0.0732 0 0 -0.0732 0 0 1.53 1.53
31 0 0 0 0 0 0 1.101 1.501
32 0.213 0.312 0.0777 0.213 0.312 0.0777 1.101 1.101
33 0.0814 0.0591 0.2219 0.2486 0.2422 -0.0925 1.101 1.53
34 0 0 0 0 0 0 1.53 1.501
35 0.2486 0.2422 -0.0925 0.0814 0.0591 0.2219 1.53 1.101
36 -0.0732 0 0 -0.0732 0 0 1.53 1.53

MiddleBondTorsion Coeffs

1 27.5989 -2.312 0 1.417
2 0 3.9421 0 1.417
3 0 -1.1521 0 1.417
4 0 9.1792 0 1.417
5 0 4.8228 0 1.417
6 0 0 0 1.501
7 0 0 0 1.501
8 0 0 0 1.34
9 0.8558 6.3911 0 1.34
10 0 3.9421 0 1.417
11 0 9.1792 0 1.417
12 -5.5679 1.4083 0.301 1.501
13 0 0 0 1.501
14 0 0 0 1.53
15 -14.261 -0.5322 -0.4864 1.53
16 -14.879 -3.6581 -0.3138 1.53
17 0 0 0 1.53
18 -14.879 -3.6581 -0.3138 1.53
19 -17.787 -7.1877 0 1.53
20 0 3.9421 0 1.417
21 0 9.1792 0 1.417
22 -5.5679 1.4083 0.301 1.501
23 0 0 0 1.501
24 0 0 0 1.53
25 0 0 0 1.53
26 -14.261 -0.5322 -0.4864 1.53
27 -14.879 -3.6581 -0.3138 1.53
28 0 0 0 1.53
29 -14.879 -3.6581 -0.3138 1.53
30 -17.787 -7.1877 0 1.53
31 0 0 0 1.53
32 -14.261 -0.5322 -0.4864 1.53
33 -14.879 -3.6581 -0.3138 1.53
34 0 0 0 1.53
35 -14.879 -3.6581 -0.3138 1.53
36 -17.787 -7.1877 0 1.53

BondBond13 Coeffs

1 53 1.417 1.417
2 0.8743 1.0982 1.501
3 -6.2741 1.417 1.0982
4 2.5085 1.417 1.501
5 -1.7077 1.0982 1.0982
6 0 1.417 1.0883
7 0 1.417 1.34
8 0 1.501 1.0883
9 0 1.0883 1.0883
10 0.8743 1.0982 1.501
11 2.5085 1.417 1.501
12 -3.4826 1.417 1.101
13 0 1.417 1.53
14 0 1.501 1.101
15 0 1.101 1.101
16 0 1.53 1.101
17 0 1.501 1.53
18 0 1.101 1.53
19 0 1.53 1.53
20 0.8743 1.0982 1.501
21 2.5085 1.417 1.501
22 -3.4826 1.417 1.101
23 0 1.417 1.53
24 0 1.501 1.101
25 0 1.501 1.53
26 0 1.101 1.101
27 0 1.101 1.53
28 0 1.53 1.501
29 0 1.53 1.101
30 0 1.53 1.53
31 0 1.101 1.501
32 0 1.101 1.101
33 0 1.101 1.53
34 0 1.53 1.501
35 0 1.53 1.101
36 0 1.53 1.53

AngleTorsion Coeffs

1 1.9767 1.0239 0 1.9767 1.0239 0 118.9 118.9
2 0 3.4601 0 0 -0.1242 0 117.94 120.05
3 0 2.5014 0 0 2.7147 0 118.9 117.94
4 0 3.8987 0 0 -4.4683 0 118.9 120.05
5 0 2.4501 0 0 2.4501 0 117.94 117.94
6 0 0 0 0 0 0 120.05 111
7 0 0 0 0 0 0 120.05 108.4
8 0 0 0 0 0 0 108.4 124.88
9 -1.8911 3.254 0 -1.8911 3.254 0 124.88 124.88
10 0 3.4601 0 0 -0.1242 0 117.94 120.05
11 0 3.8987 0 0 -4.4683 0 118.9 120.05
12 0.2251 0.6548 0.1237 4.6266 0.1632 0.0461 120.05 111
13 0 0 0 0 0 0 120.05 108.4
14 0 0 0 0 0 0 108.4 110.77
15 -0.8085 0.5569 -0.2466 -0.8085 0.5569 -0.2466 110.77 110.77
16 -0.2454 0 -0.1136 0.3113 0.4516 -0.1988 112.67 110.77
17 0 0 0 0 0 0 108.4 112.67
18 0.3113 0.4516 -0.1988 -0.2454 0 -0.1136 110.77 112.67
19 0.3886 -0.3139 0.1389 0.3886 -0.3139 0.1389 112.67 112.67
20 0 3.4601 0 0 -0.1242 0 117.94 120.05
21 0 3.8987 0 0 -4.4683 0 118.9 120.05
22 0.2251 0.6548 0.1237 4.6266 0.1632 0.0461 120.05 111
23 0 0 0 0 0 0 120.05 108.4
24 0 0 0 0 0 0 108.4 110.77
25 0 0 0 0 0 0 108.4 112.67
26 -0.8085 0.5569 -0.2466 -0.8085 0.5569 -0.2466 110.77 110.77
27 0.3113 0.4516 -0.1988 -0.2454 0 -0.1136 110.77 112.67
28 0 0 0 0 0 0 112.67 108.4
29 -0.2454 0 -0.1136 0.3113 0.4516 -0.1988 112.67 110.77
30 0.3886 -0.3139 0.1389 0.3886 -0.3139 0.1389 112.67 112.67
31 0 0 0 0 0 0 110.77 108.4
32 -0.8085 0.5569 -0.2466 -0.8085 0.5569 -0.2466 110.77 110.77
33 0.3113 0.4516 -0.1988 -0.2454 0 -0.1136 110.77 112.67
34 0 0 0 0 0 0 112.67 108.4
35 -0.2454 0 -0.1136 0.3113 0.4516 -0.1988 112.67 110.77
36 0.3886 -0.3139 0.1389 0.3886 -0.3139 0.1389 112.67 112.67

Improper Coeffs # class2/omp

1 0 0
2 4.8912 0
3 7.8153 0
4 0 0
5 2.8561 0
6 7.8153 0
7 0 0
8 0 0
9 7.8153 0
10 0 0

AngleAngle Coeffs

1 0 0 0 118.9 118.9 118.9
2 0 0 0 118.9 117.94 117.94
3 0 0 0 118.9 120.05 120.05
4 0 0 0 111 124.88 108.4
5 0 0 0 115.49 124.88 124.88
6 0 0 0 118.9 120.05 120.05
7 0 0 0 107.66 110.77 110.77
8 0 0 0 111 110.77 108.4
9 0 0 0 118.9 120.05 120.05
10 0 0 0 111 110.77 108.4

Atoms # full

534 8 2 0.1237 1.1571530041023885 -22.468774296699017 -23.83450449338677 0 0 1
543 8 2 0.0354 2.558042426513751 -22.05889228734064 -22.979893602441717 0 0 1
542 8 6 -0.0696 3.4454245955151386 -22.675360905032466 -22.76207011175141 0 0 1
533 8 1 -0.129 1.3948396535855745 -23.20154350784426 -24.608219687485917 0 0 1
544 8 2 0.0354 3.5838977704383703 -22.347983472072308 -21.743913260611087 0 0 1
2531 8 1 0.0266 4.733224425552607 -20.59581161091829 -23.643572663316572 0 0 0
2532 8 5 -0.0182 4.724978175548905 -22.084536237081057 -23.42494708529508 0 0 0
2541 8 2 0.0516 4.806454420015416 -22.67864129154408 -24.378761600096873 0 0 0
531 8 1 0.0266 2.375074753148186 -24.192747864781104 -24.28252750530275 0 0 1
532 8 5 -0.0182 3.086801691313327 -24.19892409576699 -23.009376540026032 0 0 1
974 8 6 -0.0696 2.1335532969130186 -24.935311162111155 -22.041260638774048 1 0 1
541 8 2 0.0516 3.968830326360926 -24.685439308405122 -23.278707318096487 0 0 1
529 8 1 -0.129 2.8051329645632244 -25.023664299835758 -25.274952753577963 0 0 1
530 8 2 0.1237 3.57846635227436 -25.746728458337305 -25.14846841288865 0 0 1
975 8 2 0.0354 1.8043291568523487 -25.91672403232139 -22.61154620827887 1 0 1
976 8 2 0.0354 1.185560628939901 -24.40865684287755 -21.75972115672529 1 0 1
964 8 5 -0.0182 2.603232642842367 -25.414293251422453 -20.736741678799795 1 0 1
973 8 2 0.0516 3.5206434488860365 -25.973255896149535 -21.050002269177867 1 0 1
2534 8 2 0.1237 4.678415569179611 -19.86466440987039 -21.590039163416236 0 0 0
2533 8 1 -0.129 4.784454877132542 -19.594564728170315 -22.679643187566857 0 0 0
304 7 2 0.0354 0.24883036701450414 -21.416458734556706 -21.51947563732192 1 0 1
302 7 6 -0.0696 -0.7390438602387851 -21.178845444360828 -21.894183414220446 1 0 1
966 8 2 0.1237 5.202184668442951 -24.56735062967164 -19.426120037516007 1 0 1
963 8 1 0.0266 2.9626957714855093 -24.20902897593747 -19.87497964040751 1 0 1
965 8 1 -0.129 4.282420652029145 -23.96208388853462 -19.316896626151625 1 0 1
962 8 2 0.1237 0.9492073874049025 -23.497655998988105 -19.854438680553073 1 0 1
688 8 2 0.0354 0.8364922825763057 -25.79961603456032 -19.679414048595 1 0 0
294 7 2 0.1237 -2.0701080933354454 -22.387476883927345 -24.503031283035842 1 0 1
2542 8 6 -0.0696 5.959905263083855 -22.498261501133072 -22.51959834401184 0 0 0
2544 8 2 0.0354 5.854339199510839 -23.61279385646894 -22.459302818611707 0 0 0
2543 8 2 0.0354 5.668303434200415 -22.06206187672451 -21.61568997149773 0 0 0
1590 8 2 0.1237 8.06944499628849 -23.51146860647179 -20.8858128113159 0 0 0
1587 8 1 0.0266 8.127320680661567 -21.647641098562836 -21.791272795455896 0 0 0
1585 8 1 -0.129 8.507312835143077 -20.317788210850633 -21.527754605901986 0 0 0
1206 8 2 0.1237 9.166836377818454 -24.730414695445738 25.397419751851594 -2 0 0
1599 8 2 0.0354 8.19608382070827 -24.032967261471804 -23.17855753605542 0 0 0
1598 8 6 -0.0696 8.218603593075335 -23.091193766281602 -23.658963526782735 0 0 0
1597 8 2 0.0516 7.3679585080879555 -21.120533636036008 -23.633503765277435 0 0 0
1588 8 5 -0.0182 7.311484420168483 -22.044577686809046 -22.996668923087796 0 0 0
1600 8 2 0.0354 9.296086080713222 -22.678447145747 -23.582229412946187 0 0 0
1589 8 1 -0.129 8.392816066883148 -22.52972193643799 -20.803737507571263 0 0 0
1591 8 1 -0.1734 8.911687735248954 -22.04934905825072 -19.610262169679167 0 0 0
1593 8 1 -0.1134 9.507706498905407 -20.771705558159216 -19.419331782102315 0 0 0
2234 8 2 0.1288 7.834193447468457 -26.022871800320985 -23.224568258682933 1 0 1
293 7 1 -0.129 12.893675338087965 -21.377588958462685 -24.433594713033987 0 0 1
2008 3 2 0.1403 12.882093876975098 -24.065974908977857 -21.763027386665467 -1 0 1
2009 3 1 -0.1134 11.407012997572679 -24.68592490734942 -20.355148405334404 -1 0 1
2010 3 2 0.1288 10.794476454706171 -24.98317259538486 -21.204819873275035 -1 0 1
295 7 1 -0.1734 11.606558203461931 -21.2634536785938 -25.02403024660661 0 0 1
2530 8 2 0.1237 4.7978420222858364 -20.978095180535597 -25.67183142271219 0 0 0
2529 8 1 -0.129 4.758309333669507 -20.139916314566868 -24.90953394455453 0 0 0
218 3 2 0.1288 2.0496617133275716 -17.164976990410803 -21.834205820105456 -1 0 1
672 7 2 0.0354 0.9588442087881908 -20.745365160877032 -24.393599144797964 1 0 1
671 7 2 0.0354 1.5456090572472763 -19.8724934715859 -22.994650357130865 1 0 1
670 7 6 -0.0696 0.7391072926820298 -19.907730840715317 -23.77325366272727 1 0 1
669 7 2 0.0516 1.9097100858301894 -18.16141221180032 -24.106724395775796 1 0 1
2535 8 1 -0.1734 4.624821631953908 -18.254050966632082 -23.013113626087037 0 0 0
2539 8 1 -0.1734 4.574905660616433 -18.85954826215196 -25.318347633226633 0 0 0
2537 8 1 -0.1134 4.5156309274146365 -17.894410364748563 -24.33625324667615 0 0 0
301 7 2 0.0516 -0.7598460256554274 -19.250238702592064 -22.370724760116623 1 0 1
292 7 5 -0.0182 -0.6947506605117405 -20.121662880978125 -22.99863160610884 1 0 1
660 7 5 -0.0182 0.8666812200011449 -18.423360650635548 -24.387343636894684 1 0 1
2538 8 2 0.1288 4.3287092606548825 -16.81084355664591 -24.731354771887567 0 0 0
303 7 2 0.0354 -1.5951039614248246 -21.787840951365276 -21.868425213508814 1 0 1
2540 8 2 0.1403 4.497469706965105 -18.585544676909976 25.94481933364903 0 0 -1
3300 40 3 -0.0182 2.6182813461458205 -13.509092632113608 -22.05267603544513 1 0 1
3309 40 2 0.0516 2.574473692887362 -14.530124419118579 -21.7750143079706 1 0 1
3310 40 4 -0.0696 1.8934126879563624 -13.174017124151336 -23.194663107667274 1 0 1
3311 40 2 0.0354 1.4302225959288577 -13.798737374232578 -23.979106065635552 1 0 1
3312 40 2 0.0354 1.8969098964583473 -12.092002565537994 -23.496262253822255 1 0 1
2536 8 2 0.1403 4.705264492320759 -17.432764384325804 -22.32631580815676 0 0 0
1595 8 1 -0.1734 9.354464213233488 -19.89758919945428 -20.481245808951396 0 0 0
1586 8 2 0.1237 8.550071188899706 -19.628845006532465 -22.479171096286752 0 0 0
1596 8 2 0.1403 9.648058033137078 -18.853709453326825 -20.568614216391012 0 0 0
291 7 1 0.0266 -2.002641988129725 -20.250642260219077 -23.80821359224279 1 0 1
289 7 1 -0.129 12.792149509465833 -19.02113446446461 -23.889569089677476 0 0 1
290 7 2 0.1237 -2.3114083320532455 -18.158443155556604 -23.322520360555554 1 0 1
299 7 1 -0.1734 11.651898820064462 -18.916253516166215 -24.688070763355473 0 0 1
300 7 2 0.1403 11.322647322053186 -17.88307233746869 -24.563229310675048 0 0 1
264 5 2 0.1403 11.36105765737158 -16.50565211637932 -20.049112448130344 -1 0 1
730 5 2 0.1288 6.941319859879472 -19.515481253054972 25.75808865302604 0 0 0
729 5 1 -0.1134 7.5535489984665825 -18.659557773764202 25.649761140156237 0 0 0
732 5 2 0.1403 6.88199371813055 -17.897276902764 -24.880347939099483 0 0 1
731 5 1 -0.1734 7.560330379297625 -17.72506886107897 -25.658352339909264 0 0 1
721 5 1 -0.129 8.465333512066572 -16.66287742679218 -25.800470425742148 0 0 1
3298 40 2 0.1237 4.363945336907334 -14.45428866522662 -23.646598683208538 1 0 1
3299 40 1 0.0266 3.978660296517406 -13.002408747675307 -22.136601528735113 1 0 1
3297 40 1 -0.129 4.76991387959712 -13.511645526259437 -23.13702676002384 1 0 1
3301 40 1 -0.129 4.51814300456569 -12.016700802800749 -21.342192551254513 1 0 1
272 5 2 0.0354 -1.8510762209838028 -12.459433666855361 -20.98144234378017 0 0 1
877 5 2 0.0516 -0.9919556123965556 -10.651406876162552 -23.40224968691352 -1 0 0
271 5 2 0.0354 -0.9377132001788083 -12.91539433083844 -22.361649817091838 0 0 1
2317 5 2 0.0516 -1.0554434580656105 -13.2540487349602 -24.452733084716566 0 0 1
270 5 6 -0.0696 -1.8261877355969676 -12.303693356358 -22.046111103340778 0 0 1
868 5 5 -0.0182 -1.3656655285101411 -10.756256395928064 -22.33435217158901 -1 0 0
878 5 6 -0.0696 -0.3501330023235997 -10.475298581191971 -21.327509218044785 -1 0 0
3302 40 2 0.1237 3.804128154818336 -11.650627533554568 -20.598813513203236 1 0 1
880 5 2 0.0354 0.03302836122070332 -9.433773513150395 -21.478873394927234 -1 0 0
3307 40 1 -0.1734 6.089185454215054 -13.056138163913268 -23.27457860399241 1 0 1
3305 40 1 -0.1134 6.628758066864476 -12.064151180815367 -22.499433339710095 1 0 1
3303 40 1 -0.1734 5.786946734420929 -11.526977285425794 -21.573976601336128 1 0 1
3304 40 2 0.1403 6.095150070651314 -10.783436032819733 -20.89922240195659 1 0 1
3306 40 2 0.1288 7.573653942604283 -11.619446460776187 -22.770155137467885 1 0 1
867 5 1 0.0266 12.8885481065265 -9.927781190648371 -21.984020324859756 -2 0 0
2308 5 5 -0.0182 -1.9691386494242393 -13.115494637713104 -24.908998838200105 0 0 1
2307 5 1 0.0266 -1.9500786025357764 -11.737063712019237 -25.49030613048664 0 0 1
2306 5 2 0.1237 0.12763157857150106 -11.621368155720338 -25.565876535375892 0 0 1
2305 5 1 -0.129 -0.8125575253122586 -11.095056060184833 -25.787866457953736 0 0 1
2655 5 2 0.0354 -1.540383200907757 -15.165166100392302 -25.816010113226316 1 0 1
1514 4 2 0.1288 3.698315098423732 -9.912512302004508 -25.023191309644577 1 0 1
3308 40 2 0.1403 6.656952597139585 -13.440393788899046 -24.081224455518274 1 0 1
260 5 5 -0.0182 12.288905799228203 -12.708019903860116 -22.615002640600903 -1 0 1
2318 5 6 -0.0696 12.388602885584982 -13.548132374868974 -23.895387478558796 -1 0 1
2319 5 2 0.0354 12.558566230133009 -14.626359053052402 -23.72397345821405 -1 0 1
269 5 2 0.0516 11.69589603108543 -11.782602105795457 -22.991457810972022 -1 0 1
265 5 1 -0.1134 9.648944174613854 -15.162249681202113 -20.10348229274682 -1 0 1
263 5 1 -0.1734 10.891278837833033 -15.58067199570831 -20.494127916885624 -1 0 1
267 5 1 -0.1734 9.18637673509535 -13.907010138384868 -20.62939864905185 -1 0 1
262 5 2 0.1237 12.74368588119131 -15.22410828333438 -21.65037696066961 -1 0 1
261 5 1 -0.129 11.76307997612906 -14.80454116284436 -21.308324585855235 -1 0 1
259 5 1 0.0266 11.333412232485369 -13.513142967283107 -21.709526766576495 -1 0 1
258 5 2 0.1237 9.8286699565387 -11.999125422953142 -21.64532556479304 -1 0 1
257 5 1 -0.129 10.050917833829246 -13.046737484818097 -21.355391673861025 -1 0 1
2320 5 2 0.0354 11.505177048353925 -13.560972338262912 -24.541345969954452 -1 0 1
268 5 2 0.1403 8.197155473554552 -13.650325472900999 -20.272757841657842 -1 0 1
865 5 1 -0.129 12.344285880822312 -10.024482751272489 -20.66324445336456 -2 0 0
2783 5 2 0.0354 9.604643816529716 -13.551570204328216 -25.887880813549625 1 0 1
2774 5 2 0.1237 8.775711439606315 -11.905535482321113 -25.55075076542822 1 0 1
735 5 2 0.0354 11.527732472447562 -15.39277771019399 -25.602903095428516 0 0 1
722 5 2 0.1237 8.572530206326862 -15.951759535105461 -24.986387929615614 0 0 1
2773 5 1 -0.129 7.786231564197302 -11.780955270734331 -25.983926230985862 1 0 1
870 5 2 0.1237 12.64346609335101 -9.127449493088827 -23.89705926562223 -2 0 0
869 5 1 -0.129 12.086013764875183 -9.279665623278403 -22.95910022552953 -2 0 0
1517 4 2 0.0516 0.9227021472895249 -5.794739203727686 -22.26323329202626 1 0 1
1507 4 1 0.0266 1.9158577890272943 -6.70884470727342 -23.87116550223398 1 0 1
1508 4 5 -0.0182 1.1365087358155979 -5.5221043793556674 -23.27682668528754 1 0 1
3037 4 2 0.0516 -1.497907738956905 -4.276567387100453 -23.319024447637798 1 0 0
1518 4 6 -0.0696 -0.24139812584216827 -5.735329196010574 -23.991357213585758 1 0 1
1039 4 2 0.0354 3.0227922375682788 -4.601023144372068 -22.52310637865428 1 0 1
1506 4 2 0.1237 2.2272164281599762 -6.179362528228897 -26.021938983461038 1 0 1
1505 4 1 -0.129 2.2914003668719025 -6.868908061305422 -25.184219060221302 1 0 1
1509 4 1 -0.129 2.291949283815316 -7.733767355712157 -22.981938549066776 1 0 1
3028 4 5 -0.0182 -1.0595031733459195 -4.419090322241603 -24.33936769745319 1 0 0
1510 4 2 0.1237 1.899292243052943 -7.727002030510857 -21.884097366772238 1 0 1
1511 4 1 -0.1734 3.0062107505888847 -8.925624547778092 -23.278419695879823 1 0 1
3386 24 2 0.1288 6.787871894803513 -8.185839477626873 -22.144896254782843 1 0 0
3383 24 1 -0.1734 6.997106979723381 -6.388928935812537 -20.867811382721335 1 0 0
3381 24 1 -0.129 7.622153939925184 -5.131867828471708 -20.77875274304525 1 0 0
3385 24 1 -0.1134 7.134164058654105 -7.15108520878819 -22.07706087885555 1 0 0
1512 4 2 0.1403 3.275574183978574 -9.562141613905428 -22.411452707491563 1 0 1
1515 4 1 -0.1734 2.9141217236878183 -8.041563965681712 -25.525475263074235 1 0 1
1519 4 2 0.0354 -0.1878721409456299 -6.512685191390297 -24.830594973591094 1 0 1
1520 4 2 0.0354 -0.9458848374755875 -6.363830161737723 -23.289041404937283 1 0 1
1513 4 1 -0.1134 3.167662130673234 -9.119309530826433 -24.628947354566993 1 0 1
1516 4 2 0.1403 3.362122199817155 -8.057290190807036 25.83253842029853 1 0 0
871 5 1 -0.1734 10.866349560258415 -8.739613385750923 -22.654050584131458 -2 0 0
872 5 2 0.1403 10.2356336294291 -8.143094566961011 -23.32477066820204 -2 0 0
875 5 1 -0.1734 11.090257818447114 -9.390527487773943 -20.29852883807024 -2 0 0
873 5 1 -0.1134 10.416611042952265 -8.741036074497005 -21.362938193234427 -2 0 0
2775 5 1 -0.1734 7.222735767097497 -10.601509024194842 -25.640189581852447 1 0 1
2776 5 2 0.1403 7.772971577693115 -9.88484790125054 -25.01584843314976 1 0 1
874 5 2 0.1288 9.383889533432534 -8.324272941495003 -21.164732405266303 -2 0 0
3391 24 2 0.0354 10.272062390203093 -3.4277885845553966 -22.85247305665226 1 0 0
3030 4 2 0.1237 11.684483895650088 -3.7410619455625795 -24.64264169798061 0 0 0
3378 24 2 0.1237 8.460760494298396 -4.923751379696871 -24.22327776628534 1 0 0
3377 24 1 -0.129 8.045737679281407 -5.2687911579557145 -23.226148440862183 1 0 0
3379 24 1 0.0266 8.024603363287014 -4.540369115272802 -21.99744806379017 1 0 0
3388 24 2 0.1403 7.67413047258279 -7.2410141862374875 -24.143982898806282 1 0 0
3387 24 1 -0.1734 7.633416827269021 -6.614253895160939 -23.231295754855083 1 0 0
3027 4 1 0.0266 -2.043665480700091 -4.6792735405278245 -25.52018256297848 1 0 0
3029 4 1 -0.129 12.19180311250693 -4.089984341110324 -25.540208430020517 0 0 0
3032 4 2 0.1403 10.515125415288178 -3.51941998182413 25.626457487154994 0 0 -1
1038 4 6 -0.0696 2.049247579742812 -4.341095434542589 -23.17948671380582 1 0 1
1037 4 2 0.0516 0.5290062393422363 -3.5764298956650546 -21.720487489684828 1 0 1
1026 4 2 0.1237 3.9061292987067318 -1.7723461976336867 -22.54811052005384 1 0 1
1025 4 1 -0.129 3.7391167640796272 -2.2144905618619335 -21.545440937651374 1 0 1
1027 4 1 0.0266 2.435745431722827 -2.6655531811868345 -21.24173176087148 1 0 1
1028 4 5 -0.0182 1.4016546399516159 -3.1537321586739875 -22.27793424936471 1 0 1
1040 4 2 0.0354 2.420595656502687 -4.039787928199211 -24.146548661559947 1 0 1
254 4 6 -0.0696 0.8165915940289548 -1.7867053133484156 -22.914751638849644 0 0 0
256 4 2 0.0354 1.6228014161380904 -1.476942535168029 -23.526123665220958 0 0 0
243 4 1 0.0266 -0.6114348430352289 -0.5869103952031827 -24.42423550157573 0 0 0
244 4 5 -0.0182 -0.420146986167136 -1.8978838367501996 -23.77511151596631 0 0 0
246 4 2 0.1237 0.5685012226445794 -1.089131885142177 -26.108236535216133 0 0 0
245 4 1 -0.129 -0.017676723668698782 -0.3194741762113143 -25.68845152584445 0 0 0
3040 4 2 0.0354 0.5579116127585027 -3.100037538223791 -25.218981110605785 1 0 0
3038 4 6 -0.0696 -0.4825327489289789 -2.989317939428515 -24.84457498940635 1 0 0
255 4 2 0.0354 0.5976559496177068 -0.997527667866878 -22.131196485422418 0 0 0
253 4 2 0.0516 -1.2412031104724837 -2.1817912991127804 -23.002773456061735 0 0 0
1036 4 2 0.1403 5.608835432688384 -1.4874749787993753 -20.763171062102213 1 0 1
3005 13 2 0.0516 2.554863542982029 0.8476961437952504 -24.77580470573565 0 0 1
3389 24 2 0.0516 7.806695262444797 -2.44444038030437 -21.516097088151337 1 0 0
3380 24 5 -0.0182 8.369074762778759 -3.086408818970669 -22.204433267288305 1 0 0
3390 24 6 -0.0696 9.81333342379277 -2.8793568315217026 -22.02199897427293 1 0 0
2290 24 2 0.1237 11.712443475229563 -0.9142858510362719 -24.07588542386963 0 0 0
2303 24 2 0.0354 12.316489488341958 -2.1465862252675483 -21.175534849694714 0 0 0
2292 24 5 -0.0182 10.357224118356141 -1.5042907689738247 -21.72210703079165 0 0 0
2301 24 2 0.0516 9.697568297525125 -1.1738550147201918 -21.001049051914364 0 0 0
2297 24 1 -0.1134 8.984947800066909 0.8415017950448153 -25.146772765990956 0 0 0
2296 24 2 0.1403 7.137365164212934 0.8415273993604686 -24.195297564095362 0 0 0
247 4 1 -0.1734 -0.17016746762067983 0.9701102214432495 26.11017392997136 0 0 -1
2295 24 1 -0.1734 8.19131420926547 0.6210049590729012 -24.00248689480443 0 0 0
2299 24 1 -0.1734 10.29736457119031 0.33692247697576416 -25.12836621925498 0 0 0
2293 24 1 -0.129 8.621986610215407 -0.20730497022400826 -22.897650528513815 0 0 0
2304 24 2 0.0354 12.259767499245182 -0.4974608285836738 -21.956969819256724 0 0 0
241 4 1 -0.129 -1.4451701463800997 0.3675752523373371 -23.835400772481577 0 0 0
251 4 1 -0.1734 -1.615282782177618 1.6513242634229583 -24.387256202155367 0 0 0
2300 24 2 0.1403 11.06572624887457 0.5723995257045048 -25.942981376137976 0 0 0
2289 24 1 -0.129 10.660184857108387 -0.5350964062264654 -24.068285182276423 0 0 0
242 4 2 0.1237 -1.8940554799023293 0.3510211247498005 -22.805550221803774 0 0 0
2291 24 1 0.0266 9.860223408903446 -0.7788625207600862 -22.971327122398126 0 0 0
2302 24 6 -0.0696 11.698344019454503 -1.2459258217188218 -21.23265130051815 0 0 0
3242 13 2 0.1288 9.944327730900742 3.2894384993722428 24.206200144561095 1 -1 0
2294 24 2 0.1237 7.705956674376438 -0.4017645378112093 -22.19483710617316 0 0 0
3039 4 2 0.0354 -1.1317701596356327 -2.5932446695289144 -25.68647220400342 1 0 0
775 13 1 -0.1734 3.8556855822583853 4.088660576315196 -21.0461627521459 -1 0 0
773 13 1 -0.129 4.868390299346868 4.4361569677550925 -21.97555420370573 -1 0 0
774 13 2 0.1237 5.935832611990818 4.113563669450306 -21.94642293725129 -1 0 0
770 13 2 0.1237 2.8519764070706533 6.061545111822035 -24.064075472518642 -1 0 0
779 13 1 -0.1734 2.461140072074837 5.6481917153911185 -22.05377786437626 -1 0 0
777 13 1 -0.1134 2.677461952646928 4.802725065363888 -20.999069884935608 -1 0 0
780 13 2 0.1403 1.571310285361785 6.300543447792706 -22.093761119140396 -1 0 0
769 13 1 -0.129 3.2991726467232705 5.703964420942654 -23.171889730074195 -1 0 0
771 13 1 0.0266 4.569892316925787 5.146933225830075 -23.122927266362947 -1 0 0
772 13 5 -0.0182 5.471923594861273 5.192669621338836 -24.341613861113906 -1 0 0
2802 13 2 0.1237 1.5358573977266425 3.8159538968896696 26.0926699033972 -1 -1 -1
784 13 2 0.0354 4.931909636846213 7.175957254399939 -24.76727594685789 -1 0 0
2813 13 2 0.0516 2.8976557211486127 3.852017168452901 -24.813462186444582 -1 -1 0
1112 25 2 0.1403 12.623741732797347 5.267339577113176 -22.906050981186294 -2 0 1
1113 25 1 -0.1134 -1.6572681983669428 5.781267000738837 -21.230947610777825 -1 0 1
1111 25 1 -0.1734 12.629113419736665 5.463025629196843 -21.84589642450701 -2 0 1
442 13 2 0.1288 -0.22716943904255577 6.8666354486659245 -24.48133584035274 0 0 1
778 13 2 0.1288 1.9675785477080825 4.741871444315445 -20.201537193849262 -1 0 0
1949 31 2 0.0516 4.760016990562103 5.35615043599395 -17.78181966066395 0 0 0
249 4 1 -0.1134 -1.0317555270340766 1.913615134738403 -25.610649705779032 0 0 0
252 4 2 0.1403 -2.3057178482760916 2.432625934828017 -24.033395909264453 0 0 0
3244 13 2 0.1403 10.521777062480062 4.172982208753229 -25.965059696639777 1 -1 1
3243 13 1 -0.1734 9.649606362502045 4.514495574257377 25.815803454670338 1 -1 0
3241 13 1 -0.1134 9.227598863635055 4.018418216916878 24.62887245355912 1 -1 0
3239 13 1 -0.1734 8.046057981772702 4.417032792405929 23.997588324546523 1 -1 0
248 4 2 0.1403 0.4068697420595671 1.2419525288411764 25.269298888681266 0 0 -1
781 13 2 0.0516 6.40112011138722 4.633056815460723 -24.20298329121268 -1 0 0