LAMMPS data file via write_data, version 27 Jun 2024, timestep = 50000, units = real

3362 atoms
12 atom types
3816 bonds
14 bond types
7002 angles
27 angle types
11518 dihedrals
34 dihedral types
1902 impropers
6 improper types

7.6125683251849985 40.387431674814366 xlo xhi
10.612568325184998 43.387431674814366 ylo yhi
10.612568325184998 43.387431674814366 zlo zhi

Atom Type Labels

1 c2
2 c_1
3 o
4 hc
5 ho
6 o_1
7 na
8 hn
9 n
10 hw
11 o*
12 cp

Bond Type Labels

1 c2-hc
2 c2-c2
3 c_1-o
4 c2-c_1
5 c_1-o_1
6 o-ho
7 na-c2
8 na-hn
9 n-c2
10 n-hn
11 n-c_1
12 c2-na
13 hw-o*
14 cp-cp

Angle Type Labels

1 hc-c2-hc
2 c2-c2-hc
3 c2-c2-c2
4 c2-c_1-o_1
5 o-c_1-o_1
6 c2-c_1-o
7 c_1-o-ho
8 c2-c2-c_1
9 c_1-c2-hc
10 c2-c2-na
11 na-c2-hc
12 c2-na-hn
13 hn-na-hn
14 c2-n-hn
15 c2-n-c_1
16 hn-n-hn
17 hn-n-c_1
18 n-c2-c2
19 n-c2-hc
20 hc-c2-c_1
21 n-c_1-c2
22 o_1-c_1-o
23 n-c_1-o_1
24 n-c_1-o
25 na-c2-c2
26 hw-o*-hw
27 cp-cp-cp

Dihedral Type Labels

1 c_1-c2-c2-hc
2 hc-c2-c2-hc
3 c2-c2-c2-c_1
4 c2-c2-c2-hc
5 c2-c2-c2-c2
6 c2-c_1-o-ho
7 o_1-c_1-o-ho
8 c2-c2-c_1-o
9 hc-c2-c_1-o
10 c2-c2-c_1-o_1
11 hc-c2-c_1-o_1
12 na-c2-c2-hc
13 c2-c2-c2-na
14 c2-c2-na-hn
15 hn-na-c2-hc
16 hn-n-c2-c2
17 hn-n-c2-hc
18 c_1-n-c2-c2
19 c_1-n-c2-hc
20 c2-n-c_1-c2
21 c2-n-c_1-o_1
22 c2-n-c_1-o
23 hn-n-c_1-c2
24 hn-n-c_1-o_1
25 hn-n-c_1-o
26 n-c2-c2-c2
27 n-c2-c2-hc
28 c2-c2-c_1-n
29 hc-c2-c_1-n
30 n-c_1-o-ho
31 hn-na-c2-c2
32 hc-c2-na-hn
33 na-c2-c2-c2
34 cp-cp-cp-cp

Improper Type Labels

1 c2-c_1-o-o_1
2 c2-na-hn-hn
3 c2-c_1-o_1-o
4 c2-n-hn-c_1
5 n-c_1-c2-o_1
6 cp-cp-cp-cp

Masses

1 12.0112
2 12.0112
3 15.9994
4 1.00797
5 1.00797
6 15.9994
7 14.0067
8 1.00797
9 14.0067
10 1.00797
11 15.9994
12 12.0112

Pair Coeffs # lj/class2/coul/long/omp

1 0.054 4.01
2 0.12 3.81
3 0.24 3.535
4 0.02 2.7
5 0.013 1.098
6 0.267 3.3
7 0.065 4.07
8 0.013 1.098
9 0.106 4.07
10 0.013 1.098
11 0.26 3.61
12 0.064 4.01

Bond Coeffs # class2/omp

1 1.101 345 -691.89 844.6
2 1.53 299.67 -501.77 679.81
3 1.3649 368.731 -832.478 1274.02
4 1.5202 253.707 -423.037 396.9
5 1.202 851.14 -1918.49 2160.77
6 0.965 532.506 -1282.9 2004.77
7 1.457 365.805 -699.637 998.484
8 1.006 466.74 -1073.6 1251.11
9 1.452 327.166 -547.899 526.5
10 1.01 462.75 -1053.63 1545.76
11 1.416 359.159 -558.473 1146.38
12 1.457 365.805 -699.637 998.484
13 0.97 563.28 -1428.22 1902.12
14 1.417 470.836 -627.618 1327.63

Angle Coeffs # class2/omp

1 107.66 39.641 -12.921 -2.4318
2 110.77 41.453 -10.604 5.129
3 112.67 39.516 -7.443 -9.5583
4 123.145 55.5431 -17.2123 0.1348
5 118.986 98.6813 -22.2485 10.3673
6 123.145 55.5431 -17.2123 0.1348
7 111.254 53.5303 -11.8454 -11.5405
8 108.53 51.9747 -9.4851 -10.9985
9 107.734 40.6099 -28.8121 0
10 111.91 60.7147 -13.3366 -13.0785
11 110.62 51.3137 -6.7198 -2.6003
12 110.954 50.8652 -4.4522 -10.0298
13 107.067 45.252 -7.5558 -9.512
14 113.868 45.9271 -20.0824 0
15 111.037 31.8958 -6.6942 -6.837
16 116.94 37.5749 -8.6676 0
17 117.961 37.4964 -8.1837 0
18 114.302 42.6589 -10.5464 -9.3243
19 108.937 57.401 2.9374 0
20 107.734 40.6099 -28.8121 0
21 116.926 39.4193 -10.9945 -8.7733
22 118.986 98.6813 -22.2485 10.3673
23 125.542 92.572 -34.48 -11.1871
24 125.542 92.572 -34.48 -11.1871
25 111.91 60.7147 -13.3366 -13.0785
26 103.7 49.84 -11.6 -8
27 118.9 61.0226 -34.9931 0

BondBond Coeffs

1 5.3316 1.101 1.101
2 3.3872 1.53 1.101
3 0 1.53 1.53
4 0 1.5202 1.3649
5 0 1.3649 1.202
6 46.0685 1.5202 1.202
7 0 1.3649 0.965
8 5.4199 1.53 1.5202
9 0.7115 1.5202 1.101
10 4.6217 1.53 1.457
11 12.426 1.457 1.101
12 -6.4168 1.457 1.006
13 -1.8749 1.006 1.006
14 -3.471 1.452 1.01
15 12.1186 1.452 1.416
16 -0.5655 1.01 1.01
17 -4.3126 1.01 1.416
18 3.5446 1.452 1.53
19 15.2994 1.452 1.101
20 0.7115 1.101 1.5202
21 0 1.416 1.5202
22 0 1.202 1.3649
23 138.495 1.416 1.202
24 0 1.416 1.3649
25 4.6217 1.457 1.53
26 -9.5 0.97 0.97
27 68.2856 1.417 1.417

BondAngle Coeffs

1 18.103 18.103 1.101 1.101
2 20.754 11.421 1.53 1.101
3 8.016 8.016 1.53 1.53
4 0 0 1.5202 1.3649
5 0 0 1.3649 1.202
6 34.9982 37.1298 1.5202 1.202
7 0 0 1.3649 0.965
8 18.1678 15.8758 1.53 1.5202
9 12.4632 9.1765 1.5202 1.101
10 6.0876 16.5702 1.53 1.457
11 42.4332 13.4582 1.457 1.101
12 31.8096 20.5799 1.457 1.006
13 28.0322 28.0322 1.006 1.006
14 11.8828 5.9339 1.452 1.01
15 3.7812 14.8633 1.452 1.416
16 19.8125 19.8125 1.01 1.01
17 10.8422 29.5743 1.01 1.416
18 4.6031 -5.479 1.452 1.53
19 34.8907 10.6917 1.452 1.101
20 9.1765 12.4632 1.101 1.5202
21 0 0 1.416 1.5202
22 0 0 1.202 1.3649
23 62.7124 52.4045 1.416 1.202
24 0 0 1.416 1.3649
25 16.5702 6.0876 1.457 1.53
26 22.35 22.35 0.97 0.97
27 28.8708 28.8708 1.417 1.417

Dihedral Coeffs # class2/omp

1 -0.0228 0 0.028 0 -0.1863 0
2 -0.1432 0 0.0617 0 -0.1083 0
3 0.0972 0 0.0722 0 -0.2581 0
4 0 0 0.0316 0 -0.1681 0
5 0 0 0.0514 0 -0.143 0
6 0 0 0 0 0 0
7 -2.7332 0 2.9646 0 -0.0155 0
8 0 0 0 0 0 0
9 0 0 0 0 0 0
10 0.0442 0 0.0292 0 0.0562 0
11 -0.1804 0 0.0012 0 0.0371 0
12 -0.2428 0 0.4065 0 -0.3079 0
13 0.1764 0 0.1766 0 -0.5206 0
14 -1.1506 0 -0.6344 0 -0.1845 0
15 -0.5187 0 -0.4837 0 -0.1692 0
16 -0.0483 0 -0.0077 0 -0.0014 0
17 -0.0148 0 -0.0791 0 -0.0148 0
18 0.0143 0 -0.0132 0 0.0091 0
19 0.0219 0 -0.026 0 0.0714 0
20 -0.7532 0 2.7392 0 0.0907 0
21 0.8297 0 3.7234 0 -0.0495 0
22 0 0 0 0 0 0
23 0 0 0 0 0 0
24 -1.6938 0 2.7386 0 -0.336 0
25 0 0 0 0 0 0
26 0.0972 0 0.0722 0 -0.2581 0
27 -0.0228 0 0.028 0 -0.1863 0
28 0.1693 0 -0.009 0 -0.0687 0
29 0.1693 0 -0.009 0 -0.0687 0
30 0 0 0 0 0 0
31 -1.1506 0 -0.6344 0 -0.1845 0
32 -0.5187 0 -0.4837 0 -0.1692 0
33 0.1764 0 0.1766 0 -0.5206 0
34 8.3667 0 1.1932 0 0 0

AngleAngleTorsion Coeffs

1 -5.3624 108.53 110.77
2 -12.564 110.77 110.77
3 -0.3801 112.67 108.53
4 -16.164 112.67 110.77
5 -22.045 112.67 112.67
6 0 0 111.254
7 0 118.985 111.254
8 0 108.53 0
9 0 107.734 0
10 -8.019 108.53 123.145
11 -15.3496 107.734 123.145
12 -15.7572 111.91 110.77
13 -27.3953 112.67 111.91
14 -7.5499 111.91 110.954
15 -10.4258 110.62 110.954
16 -4.6337 113.868 114.302
17 -6.659 113.868 108.937
18 -7.4314 111.037 114.302
19 -8.1335 111.037 108.937
20 -6.5335 111.037 116.926
21 -15.5547 111.037 125.542
22 0 111.037 0
23 -1.3234 117.961 116.926
24 -7.3186 117.961 125.542
25 0 117.961 0
26 -1.0631 114.302 112.67
27 -12.7974 114.302 110.77
28 -5.4514 108.53 116.926
29 -12.2417 107.734 116.926
30 0 0 111.254
31 -7.5499 110.954 111.91
32 -10.4258 110.954 110.62
33 -27.3953 111.91 112.67
34 0 118.9 118.9

EndBondTorsion Coeffs

1 -0.0204 0.3628 -0.4426 -0.0097 -0.0315 -0.0755 1.5202 1.101
2 0.213 0.312 0.0777 0.213 0.312 0.0777 1.101 1.101
3 0.0062 -0.0002 0.0036 0.0055 0.006 -0.0009 1.53 1.5202
4 0.2486 0.2422 -0.0925 0.0814 0.0591 0.2219 1.53 1.101
5 -0.0732 0 0 -0.0732 0 0 1.53 1.53
6 0 0 0 0 0 0 1.5202 0.965
7 0 0 0 0 0 0 1.202 0.965
8 0 0 0 0 0 0 1.53 1.3649
9 0 0 0 0 0 0 1.101 1.3649
10 0.2654 0.0503 0.1046 -0.281 0.0816 -0.1522 1.53 1.202
11 1.2143 0.2831 0.3916 -0.2298 0.0354 0.3853 1.101 1.202
12 0.1022 0.209 0.6433 0.196 0.7056 0.112 1.457 1.101
13 0.1032 0.5896 -0.4836 0.0579 -0.0043 -0.1906 1.53 1.457
14 -0.9466 0.9356 -0.5542 0.057 0.0625 0.4112 1.53 1.006
15 -1.1685 0.9266 -0.0993 0.085 0.3061 0.2104 1.101 1.006
16 -0.0992 -0.0727 -0.4139 0.132 0.0015 0.1324 1.01 1.53
17 -0.4894 0.1644 0.3105 -0.8983 0.2826 0.0881 1.01 1.101
18 -0.1245 -0.9369 0.7781 -0.2033 0.0035 0.056 1.416 1.53
19 0.2292 1.1732 -0.058 -0.3667 0.8197 0.1335 1.416 1.101
20 0.2299 -0.1141 -0.1424 0.0933 -0.4631 0.2883 1.452 1.5202
21 0.1598 0.7253 -0.1007 0.1226 -2.1326 0.5581 1.452 1.202
22 0 0 0 0 0 0 1.452 1.3649
23 0.6413 0.1676 0.144 -0.6979 0.5619 0.4212 1.01 1.5202
24 0.1214 0.1936 0.0816 -0.7604 -2.6431 1.2467 1.01 1.202
25 0 0 0 0 0 0 1.01 1.3649
26 -0.0797 -0.0406 0.0255 0.0742 0.0105 0.0518 1.452 1.53
27 0.3022 0.2513 0.4641 -0.0601 -0.3763 -0.1876 1.452 1.101
28 -0.2631 -0.0076 -0.1145 -0.2751 -0.3058 -0.1767 1.53 1.416
29 -0.0268 0.7836 0.0035 0.3552 -0.2685 0.5834 1.101 1.416
30 0 0 0 0 0 0 1.416 0.965
31 0.057 0.0625 0.4112 -0.9466 0.9356 -0.5542 1.006 1.53
32 0.085 0.3061 0.2104 -1.1685 0.9266 -0.0993 1.006 1.101
33 0.0579 -0.0043 -0.1906 0.1032 0.5896 -0.4836 1.457 1.53
34 -0.1185 6.3204 0 -0.1185 6.3204 0 1.417 1.417

MiddleBondTorsion Coeffs

1 -3.5039 1.2458 -0.761 1.53
2 -14.261 -0.5322 -0.4864 1.53
3 -1.5945 0.2267 -0.6911 1.53
4 -14.879 -3.6581 -0.3138 1.53
5 -17.787 -7.1877 0 1.53
6 0 0 0 1.3649
7 0 0 0 1.3649
8 0 0 0 1.5202
9 0 0 0 1.5202
10 0.3388 -0.1096 0.1219 1.5202
11 0.2359 0.9139 0.9594 1.5202
12 -10.4959 -0.7647 -0.0545 1.53
13 -15.4174 -7.3055 -1.0749 1.53
14 -2.2208 0.5479 -0.3527 1.457
15 -3.4611 1.6996 -0.6007 1.457
16 -3.5406 -3.3866 0.0352 1.452
17 -1.1752 2.8058 0.8083 1.452
18 -3.9501 -0.4002 -0.6798 1.452
19 -0.6899 -2.2646 1.1579 1.452
20 0 0 0 1.416
21 -8.8301 14.3079 -1.7716 1.416
22 0 0 0 1.416
23 0 0 0 1.416
24 -0.9084 6.1447 -0.4852 1.416
25 0 0 0 1.416
26 -4.2324 -3.3023 -1.3244 1.53
27 -4.1028 -0.5941 -0.047 1.53
28 0 0 0 1.5202
29 0 0 0 1.5202
30 0 0 0 1.3649
31 -2.2208 0.5479 -0.3527 1.457
32 -3.4611 1.6996 -0.6007 1.457
33 -15.4174 -7.3055 -1.0749 1.53
34 27.5989 -2.312 0 1.417

BondBond13 Coeffs

1 0 1.5202 1.101
2 0 1.101 1.101
3 0 1.53 1.5202
4 0 1.53 1.101
5 0 1.53 1.53
6 0 1.5202 0.965
7 0 1.202 0.965
8 0 1.53 1.3649
9 0 1.101 1.3649
10 0 1.53 1.202
11 0 1.101 1.202
12 0 1.457 1.101
13 0 1.53 1.457
14 0 1.53 1.006
15 0 1.101 1.006
16 0 1.01 1.53
17 0 1.01 1.101
18 0 1.416 1.53
19 0 1.416 1.101
20 0 1.452 1.5202
21 0 1.452 1.202
22 0 1.452 1.3649
23 0 1.01 1.5202
24 0 1.01 1.202
25 0 1.01 1.3649
26 0 1.452 1.53
27 0 1.452 1.101
28 0 1.53 1.416
29 0 1.101 1.416
30 0 1.416 0.965
31 0 1.006 1.53
32 0 1.006 1.101
33 0 1.457 1.53
34 53 1.417 1.417

AngleTorsion Coeffs

1 -0.7466 -0.9448 -0.6321 0.0162 1.4211 -1.4092 108.53 110.77
2 -0.8085 0.5569 -0.2466 -0.8085 0.5569 -0.2466 110.77 110.77
3 -0.2607 0.3203 -0.2283 0.0515 -0.0674 -0.0474 112.67 108.53
4 -0.2454 0 -0.1136 0.3113 0.4516 -0.1988 112.67 110.77
5 0.3886 -0.3139 0.1389 0.3886 -0.3139 0.1389 112.67 112.67
6 0 0 0 0 0 0 0 111.254
7 0 0 0 0 0 0 118.985 111.254
8 0 0 0 0 0 0 108.53 0
9 0 0 0 0 0 0 107.734 0
10 0.0885 -1.3703 -0.5452 0.675 0.5965 0.6725 108.53 123.145
11 9.1299 -0.4847 0.3582 -1.4946 0.7308 -0.2083 107.734 123.145
12 -1.1075 0.282 0.8318 0.5111 1.6328 -1.0155 111.91 110.77
13 -1.9225 -1.345 0.221 2.0125 0.944 -2.7612 112.67 111.91
14 -3.343 4.4558 -0.0346 0.2873 -0.8072 -0.096 111.91 110.954
15 -3.9582 2.0063 0.3213 -0.4294 -0.4442 -0.6141 110.62 110.954
16 -0.5807 0.2041 -0.1384 -2.8967 2.7084 -0.0375 113.868 114.302
17 -0.3868 0.2041 0.0445 -3.7022 1.3876 0.2393 113.868 108.937
18 -1.523 1.1296 0.7167 -0.7555 0.0564 1.2177 111.037 114.302
19 0.0372 -0.3418 -0.0775 -1.5157 2.0781 0.5364 111.037 108.937
20 5.916 1.7856 0.4052 4.2133 2.9302 3.2903 111.037 116.926
21 7.4427 2.1505 -0.2206 4.4466 4.0317 1.7129 111.037 125.542
22 0 0 0 0 0 0 111.037 0
23 1.9306 0.2105 0.0557 -2.2134 1.2909 0.9726 117.961 116.926
24 2.3848 0.703 0.1399 -2.6238 0.3606 0.5474 117.961 125.542
25 0 0 0 0 0 0 117.961 0
26 0.2039 0.1602 -0.7946 -0.5501 -1.6982 0.2485 114.302 112.67
27 -1.982 0.2325 -0.3928 -1.2469 1.6933 -1.2081 114.302 110.77
28 2.1802 -0.0335 -1.3816 2.1221 0.5032 -0.0767 108.53 116.926
29 7.095 0.0075 0.691 2.0013 0.5068 0.8406 107.734 116.926
30 0 0 0 0 0 0 0 111.254
31 0.2873 -0.8072 -0.096 -3.343 4.4558 -0.0346 110.954 111.91
32 -0.4294 -0.4442 -0.6141 -3.9582 2.0063 0.3213 110.954 110.62
33 2.0125 0.944 -2.7612 -1.9225 -1.345 0.221 111.91 112.67
34 1.9767 1.0239 0 1.9767 1.0239 0 118.9 118.9

Improper Coeffs # class2/omp

1 0 0
2 0 0
3 0 0
4 0 0
5 24.3329 0
6 7.1794 0

AngleAngle Coeffs

1 0 0 0 0 118.985 123.145
2 0.2738 -0.4825 0.2738 110.77 107.66 110.77
3 -1.3199 -1.3199 0.1184 112.67 110.77 110.77
4 2.0403 -1.8202 1.0827 108.53 107.734 110.77
5 0 0 0 116.926 123.145 125.542
6 0 0 0 118.9 118.9 118.9

Atoms # full

1024 13 6 -0.58244 10.401863629609513 11.732753785047828 12.67079284279143 1 0 0
1030 13 4 0.20587 10.844636528256586 14.89009904934796 12.965050025868361 1 0 0
1022 13 2 0.78608 10.821590320543507 12.789150943107257 12.415236548986638 1 0 0
1025 13 3 -0.68598 11.037916222156264 13.122983440285992 11.116061524200743 1 0 0
1016 13 4 0.20049 13.139466772214211 14.286419152740754 12.102000259174408 1 0 0
1020 13 1 -0.38182 12.236823508074966 13.894685891627166 14.209162935307017 1 0 0
1031 13 4 0.22795 10.003130627036397 13.79601583367374 13.984569881567356 1 0 0
1021 13 1 -0.47583 10.931676815141671 13.913746197635854 13.399067562834512 1 0 0
1032 13 5 0.486 11.333505433173306 14.036915293955206 11.149079835123306 1 0 0
1013 13 1 -0.72636 13.337134611715719 14.421216227067987 13.249703045587136 1 0 0
1028 13 4 0.18182 12.297343934629323 14.492567892815241 15.14072549778391 1 0 0
1029 13 4 0.21541 12.394723670652658 12.798308967823242 14.455881402285614 1 0 0
1750 89 8 0.33306 8.586718810509275 10.823260625630159 13.331169010163617 0 0 1
1749 89 8 0.33793 8.40032929687188 11.712670983672439 14.57324250177495 0 0 1
1658 85 4 0.16772 13.103065727501551 11.173211880095316 11.859525167890224 0 0 1
1657 85 4 0.17321 14.408089780999768 12.408002530608412 11.738162663703573 0 0 1
1650 85 1 -0.17544 14.007177679093783 11.46138198288643 11.368230036203288 0 0 1
2634 99 12 0 17.008867735692057 15.111693132116175 13.245756078918877 0 1 0
1017 13 4 0.19609 14.265054204184121 13.747612941571974 13.479436143565131 1 0 0
2635 99 12 0 17.98168517171954 14.548745294768255 14.062999988018442 0 1 0
2633 99 12 0 17.06925056477488 15.116251791718573 11.867185548743317 0 1 0
1649 85 1 -0.38667 15.158075082207336 43.17166051272038 11.333404107944894 0 -1 1
1655 85 4 0.19062 15.903205300129782 10.712425342374445 43.296124051982204 0 0 0
1656 85 4 0.18951 14.797929232895138 42.20298148411663 10.986673559290129 0 -1 1
2750 99 12 0 18.31827236258261 14.680645675191933 11.236395641135529 0 1 0
1659 85 8 0.33245 13.230835199756013 12.512005276243436 42.46238634193923 0 0 0
1651 85 7 -0.79903 13.86760810526322 11.726214380910104 42.678183662009985 0 0 0
1669 85 4 0.18425 16.16825253806568 11.162564227571444 13.196931133720856 0 0 1
2636 99 12 0 17.668274246644692 14.16381495723195 15.380697103470807 0 1 0
2647 99 12 0 16.362717011376407 14.357973309801004 15.861176439937466 0 1 0
2637 99 12 0 18.44538510806716 13.173492441027431 16.00085042900684 0 1 0
2752 99 12 0 19.170166368560608 14.07016479322433 13.427890204039262 0 1 0
2738 99 12 0 22.157281358287655 11.749707607390574 11.535188631425056 0 1 0
2747 99 12 0 21.272133510245606 12.642570618788692 12.181478961456696 0 1 0
2739 99 12 0 23.205649172972716 11.175636135258479 12.328763393959433 0 1 0
2746 99 12 0 20.25164526982832 13.253787768288857 11.443894897486116 0 1 0
2748 99 12 0 21.154096585276328 12.69109288060099 13.557280418198037 0 1 0
2740 99 12 0 23.20716267130306 11.30944584695836 13.744237187908519 0 1 0
2751 99 12 0 19.299373205952303 14.077070643515741 12.041411215997298 0 1 0
2623 99 12 0 20.028366018044718 13.238332576055077 14.18519346006503 0 1 0
2617 99 12 0 22.06085423480876 11.888289445851221 14.267542152081754 0 1 0
346 8 4 0.18224 21.623093493702108 16.92727052629035 42.98923299165123 0 0 -1
2613 99 12 0 24.097299073821926 43.37773963664232 14.524023670160142 0 0 0
2618 99 12 0 21.741088652620867 11.572570306223097 15.638769318462186 0 1 0
2624 99 12 0 19.678548290345724 12.824556172352022 15.461020203433575 0 1 0
2614 99 12 0 23.810510957264253 43.155388137958134 15.931551602474913 0 0 0
101 8 3 -0.68598 28.960087669375515 12.225128055107511 13.753567619448846 0 0 0
92 8 4 0.20049 26.034844155993394 15.87963958352326 11.865032182750825 0 0 0
104 8 4 0.18182 28.50962561175733 15.432262840509626 11.198398981893947 0 0 0
108 8 5 0.486 29.602346689084246 12.12824343524161 14.4799347544152 0 0 0
98 8 2 0.78608 29.181168214846142 13.442537940947973 13.237248292111277 0 0 0
106 8 4 0.20587 27.045270843702635 13.91495853628027 13.355593538310822 0 0 0
89 8 1 -0.72636 26.485109574738566 15.131748855041584 11.071319573975869 0 0 0
96 8 1 -0.38182 27.821182357372706 14.585999743898006 11.484846578914324 0 0 0
97 8 1 -0.47583 28.021241231649597 14.316211518466531 12.8700126942596 0 0 0
107 8 4 0.22795 28.164154390287994 15.19173708585385 13.547676552182573 0 0 0
105 8 4 0.21541 28.155600786562015 13.739870986065032 10.875994716899964 0 0 0
100 8 6 -0.58244 30.25485589766395 13.887461990913167 13.484997910914167 0 0 0
584 11 6 -0.58244 24.25537343015651 12.601296926062323 18.25914403953507 0 0 0
585 11 3 -0.68598 26.049759941399532 12.685801620782026 17.074858482545523 0 0 0
2905 100 12 0 31.052846251472808 43.33275046789527 11.430713160339872 0 -1 0
2906 100 12 0 30.98479468128016 11.798115776301719 10.76833721660395 0 0 0
2917 100 12 0 32.72463353612774 11.426211299493465 12.876853744189717 0 0 0
2918 100 12 0 32.85291766331076 12.520148922727603 12.033661080875898 0 0 0
2919 100 12 0 32.06642746019705 12.646488898132766 10.917282609407911 0 0 0
2929 100 12 0 33.936216444750784 13.38314974202918 12.217462524899165 0 0 0
2916 100 12 0 33.64464628501102 11.206135631608733 13.923875742005665 0 0 0
2930 100 12 0 34.354347776755155 14.174354872473643 11.076992848699819 0 0 0
2928 100 12 0 34.81985307341283 13.202947278198224 13.279195193705135 0 0 0
2927 100 12 0 34.579059665461585 12.194663352882737 14.21802102618874 0 0 0
231 19 6 -0.6553 30.185966971873242 11.439408855153571 15.937966480122384 0 0 0
234 19 4 0.21423 31.42305381458651 13.640925578659932 16.398406867584335 0 0 0
1740 89 7 -0.79111 7.895418017772771 10.944136915222348 14.111525319925315 0 0 1
1751 89 4 0.17708 39.27125368798516 12.358715260440432 13.378726601693975 -1 0 1
2941 100 12 0 36.02544563395076 13.958333903591976 13.367439887318861 0 0 0
2940 100 12 0 36.93558174625441 13.740303957095119 14.46124057327266 0 0 0
2926 100 12 0 35.52516255672548 11.991824795666117 15.3288698401361 0 0 0
2939 100 12 0 36.60757691179291 12.85027773647695 15.478246593369809 0 0 0
2967 100 12 0 39.81444602629409 14.905729282684803 11.117627655587139 0 0 0
2942 100 12 0 36.403856830569346 14.746244075725832 12.280797005156407 0 0 0
2943 100 12 0 35.683122881392926 14.62319081341537 11.081034282737985 0 0 0
2954 100 12 0 38.41633046095791 15.212684410946462 11.028879990795547 0 0 0
2953 100 12 0 37.68999641614679 15.23600947088089 12.235892027812511 0 0 0
1741 89 1 -0.17576 39.34943699860167 11.273200768862173 13.69480035082354 -1 0 1
1759 89 4 0.18777 37.33181735083344 11.36688792903116 11.769941020854924 -1 0 1
1088 61 8 0.3448 8.183866301829358 15.094684563322346 14.518249761482167 0 0 0
1087 61 8 0.33245 39.73184580427403 15.123573466126723 15.611851559381748 -1 0 0
1079 61 7 -0.79903 7.746855609026042 14.591420792445042 15.301337626775254 0 0 0
2925 100 12 0 35.57857206661512 10.670690911248737 15.865290654308616 0 0 0
166 13 8 0.29346 35.91905359190509 16.908580716144996 14.98259559669869 -1 0 0
1023 13 6 -0.6553 12.312350454579516 17.04392962396727 11.729675901606242 1 0 0
1014 13 2 0.40603 12.481063973792896 16.885916158367795 12.94523380956385 1 0 0
1019 13 1 -0.27437 13.499328991154934 15.93155627633475 13.573673917397763 1 0 0
155 13 9 -0.60533 11.70944670281929 17.520785753327523 13.856896155884229 0 0 0
164 13 8 0.29346 11.816311915600318 17.2736111862632 14.842710879796371 0 0 0
515 36 8 0.33245 14.643796338339472 18.260755611231776 11.034377412869269 0 0 0
162 13 4 0.15396 10.154905377399926 17.972876383095493 12.534047781472408 0 0 0
154 13 1 -0.01149 10.538755632873896 18.23239164421696 13.504968663808723 0 0 0
161 13 4 0.1836 10.615304097926991 19.36067879588363 13.323230102949863 0 0 0
160 13 4 0.18951 9.656321136788074 16.975061488575463 15.116210565385536 0 0 0
153 13 1 -0.76306 9.475104592075386 17.92521963935067 14.561161965504814 0 0 0
159 13 4 0.19062 9.653689911492554 18.719030200950872 15.327670881913598 0 0 0
884 55 4 0.20049 39.84846598096493 20.0782659336395 12.054243141538649 0 0 0
1027 13 4 0.18949 13.67992521717806 16.093543218556775 14.619298783735017 1 0 0
1026 13 4 0.21423 14.36813551237475 16.31626847209107 12.954653505704977 1 0 0
3331 101 12 0 17.401388860520772 19.872303827398426 12.81917799131849 0 0 0
3318 101 12 0 17.28918626347749 19.067204256655877 13.9130328940466 0 0 0
3330 101 12 0 16.249458771056684 20.415908387630314 12.212363403124607 0 0 0
3329 101 12 0 15.011091457861408 20.29353350067897 12.873810435729164 0 0 0
3317 101 12 0 16.15439504430948 19.105296197180873 14.723933360555543 0 0 0
3316 101 12 0 15.060483102286623 19.865358917009416 14.225023538615506 0 0 0
3132 101 12 0 13.196673541423463 21.28574258723979 14.68612414377538 0 0 0
3315 101 12 0 14.107742927018181 20.316349670961262 15.149807437998767 0 0 0
3306 101 12 0 16.142043788881907 18.535768515816 15.992241638563277 0 0 0
3146 101 12 0 13.902163375263168 20.99136984845667 12.3920525693495 0 0 0
3145 101 12 0 12.965897411557453 21.524079335210107 13.327630902005959 0 0 0
3307 101 12 0 17.14083402208327 17.681460713478284 16.347328762635776 0 0 0
3304 101 12 0 14.245283330949126 20.018046395414487 16.465713630878092 0 0 0
3308 101 12 0 18.240285791449192 17.50592835677914 15.505147144891978 0 0 0
3319 101 12 0 18.4060956571958 18.32832932784917 14.39483722981258 0 0 0
3332 101 12 0 18.649424873211558 20.326543287966114 12.40624145106261 0 0 0
3333 101 12 0 19.799608860906176 19.82301178644691 13.07905747255709 0 0 0
345 8 4 0.18117 22.04606043865688 18.597495843062262 43.203314019129095 0 0 -1
3334 101 12 0 20.955768203172486 20.67132409558517 13.155785855747109 0 0 0
3335 101 12 0 22.053854494562387 20.195518135607074 13.896480301286122 0 0 0
3320 101 12 0 19.71348600905702 18.69276714547002 13.92622337293515 0 0 0
3322 101 12 0 22.017407994584282 18.932207990367672 14.444518974752686 0 0 0
3321 101 12 0 20.8183075421713 18.164945977142004 14.517131691223675 0 0 0
3310 101 12 0 20.699740742245723 17.20354899870281 15.506339934653582 0 0 0
3323 101 12 0 23.17753973912126 18.57496373278105 15.17535793257613 0 0 0
3309 101 12 0 19.40220421826364 16.869722515612096 15.998225256282725 0 0 0
3311 101 12 0 21.812707858444497 16.877330400615143 16.316986588176196 0 0 0
93 8 4 0.19609 25.655179962989664 14.388693390334055 11.113365356213821 0 0 0
344 8 4 0.15396 24.28033945696125 17.45590543455909 10.717974170890432 0 0 0
606 40 8 0.33306 24.613168416224998 21.133964539472625 43.07349020166495 0 0 -1
605 40 8 0.33793 24.14142515724399 19.919320300667202 11.269055008732757 0 0 0
598 40 1 -0.38091 26.239921164901876 19.70322438702469 12.827188763693897 0 0 0
609 40 4 0.18117 25.406871204872928 18.93154385800058 13.095927872418418 0 0 0
615 40 4 0.18777 28.30714542089273 18.88112978576788 12.372846201659026 0 0 0
614 40 1 -0.37058 27.688248860082695 19.356528958725896 13.186724600546603 0 0 0
616 40 4 0.1849 27.71280334817389 18.535721750327493 13.850703698349111 0 0 0
610 40 4 0.18224 25.986779987171275 20.638856955167306 13.415225832874079 0 0 0
596 40 7 -0.79111 24.76585620303192 20.698024883861226 11.206854726724155 0 0 0
608 40 4 0.15806 26.373169755187874 19.24541034014777 10.66964996742808 0 0 0
597 40 1 -0.17576 26.132843286461373 20.090241140865903 11.364741865848965 0 0 0
607 40 4 0.17708 26.864134551277473 20.950246700446144 11.13075003019498 0 0 0
3337 101 12 0 24.082193766859593 20.82873563844268 15.195519844076435 0 0 0
760 47 6 -0.58244 29.876405198383296 16.612791724777335 15.1684011453816 0 0 0
600 40 4 0.18951 30.552356680941987 19.964143634696597 13.361974634440628 0 0 0
753 47 4 0.19609 32.89467589234547 18.815488682096213 12.927190612837018 0 0 0
749 47 1 -0.72636 33.67275040508764 18.03935579663485 13.157497194868432 0 0 0
756 47 1 -0.38182 32.98390847154093 16.723870430151283 13.47091372869534 0 0 0
755 47 1 -0.27437 34.77370532430447 18.08553856667051 12.05345728243772 0 0 0
762 47 4 0.21423 34.41092275016946 17.581296242376368 11.21290313373758 0 0 0
752 47 4 0.20049 34.21474832881954 18.411926564933786 14.096359505657427 0 0 0
2499 98 12 0 31.12463071848664 18.57894087452464 43.252015457350765 0 0 -1
764 47 4 0.18182 33.636960158471695 16.04324591332115 14.073999924893347 0 0 0
758 47 2 0.78608 31.03049573206072 16.252712662455583 15.00955896649736 0 0 0
766 47 4 0.20587 31.17379479416072 17.902234580986722 13.718558496258815 0 0 0
2500 98 12 0 30.64847543582971 19.899268123589096 10.623750826218576 0 0 0
765 47 4 0.21541 32.6746602484549 16.285766081454558 12.546124145421292 0 0 0
757 47 1 -0.47583 31.84473005593927 17.27451931031176 14.2691957799916 0 0 0
1441 47 8 0.29346 34.09444726368054 20.560368891931283 12.77189769984844 0 0 0
2383 98 12 0 31.574208061256716 20.960059185992378 10.725869208730815 0 0 0
767 47 4 0.22795 32.32067283673691 17.830071122054335 15.070313266965142 0 0 0
750 47 2 0.40603 35.11158783031799 19.468677886110406 11.364133500354642 0 0 0
763 47 4 0.18949 35.82563103061493 17.655748772850597 12.304008906002519 0 0 0
898 55 4 0.20587 38.7504356678772 18.1919848770082 10.700490626455448 0 0 0
172 13 4 0.1772 7.763187333130463 17.000397855645957 13.630973414650017 0 0 0
170 13 4 0.18224 38.260289633301554 16.699986615226365 14.592116070481783 -1 0 0
171 13 1 -0.38394 8.021856952769012 17.967405425366493 14.08853268269484 0 0 0
173 13 4 0.18425 7.8865443174629215 18.92427897253143 13.497851850620274 0 0 0
169 13 4 0.18117 37.96595296621488 18.36003723862753 14.140094037764928 -1 0 0
1432 47 9 -0.60533 34.46944855838009 20.634901986277033 11.842771831644727 0 0 0
885 55 4 0.19609 37.96226012767899 20.33696309787933 11.927825043812513 0 0 0
881 55 1 -0.37128 38.976137408778726 20.60987065555099 11.50198054823083 0 0 0
158 13 1 -0.76306 38.33146614173979 17.683384709571552 14.959324836851646 -1 0 0
1851 15 11 -0.76 34.02565090325792 22.623198252116318 17.874802534262564 0 0 0
3155 101 12 0 11.887579711975098 22.749371790672775 11.52048752960463 0 0 0
3154 101 12 0 10.937336835940435 23.667032921606665 11.129179890714346 0 0 0
3144 101 12 0 12.06737474787402 22.491306833392926 12.89449768531684 0 0 0
3153 101 12 0 10.316076522322577 24.456810570572166 12.039935225771965 0 0 0
3142 101 12 0 10.718549163898455 24.349327608649148 13.390913764307408 0 0 0
3143 101 12 0 11.444552777387845 23.2807860287397 13.84434013341051 0 0 0
3152 101 12 0 9.506592429618118 25.47235271993171 11.610445141684897 0 0 0
3141 101 12 0 10.396755331582323 25.41809946641584 14.266299931282267 0 0 0
3151 101 12 0 9.30319876646679 26.617108696400845 12.453554605191147 0 0 0
3140 101 12 0 9.803822771001101 26.57485572151754 13.711544291024662 0 0 0
3130 101 12 0 11.754825366050111 23.14842844289255 15.233600152424566 0 0 0
3131 101 12 0 12.57335743294686 22.076594781645824 15.670770230985942 0 0 0
3129 101 12 0 11.52925952231194 24.22188780612039 16.079469832722488 0 0 0
3128 101 12 0 10.814391414835793 25.34544660439012 15.603282800355721 0 0 0
891 55 6 -0.56991 7.842853555505501 22.51971965507599 13.384277803699165 1 0 0
895 55 4 0.21572 40.23610766819996 22.36450326706427 10.924565640994649 0 0 0
3127 101 12 0 10.723465213110575 26.463716444006575 16.454833201864407 0 0 0
3157 101 12 0 13.946290927380149 21.564438662577814 11.145023187122622 0 0 0
3160 101 12 0 17.66236523585192 21.824069113207333 10.885615012861772 0 0 0
3159 101 12 0 16.389866255385122 21.242089367295637 11.097704152105052 0 0 0
140 11 1 -0.38182 15.861652004116916 25.2376059080422 16.343589644304537 0 0 0
133 11 1 -0.72636 17.283590548396692 25.714329755305773 15.974955289978091 0 0 0
137 11 4 0.19609 17.351988913271814 26.881028877206543 15.762854306547942 0 0 0
152 11 5 0.486 16.389417518760578 26.805427140748304 14.102388349056003 0 0 0
139 11 1 -0.27437 17.896032939994726 24.88376231304233 14.87918829912596 0 0 0
146 11 4 0.21423 18.656708932689092 25.439991858370448 14.325009930229829 0 0 0
147 11 4 0.18949 17.048733957034933 24.65265528946033 14.21860226455482 0 0 0
136 11 4 0.20049 17.908154849433394 25.65205517778331 16.88540710794242 0 0 0
148 11 4 0.18182 15.476283574392111 25.87927981903013 17.18629140454541 0 0 0
145 11 3 -0.68598 15.4990837143266 27.058594302686117 13.652437909959268 0 0 0
149 11 4 0.21541 16.008278816969874 24.10511269548033 16.604401015197343 0 0 0
735 11 8 0.29346 19.931010736006023 24.197631971542528 16.48357373124487 0 0 0
142 11 2 0.78608 14.598670729907756 26.484941721759657 14.495688861001474 0 0 0
141 11 1 -0.47583 14.86234444968999 25.16453621357858 15.09105540558347 0 0 0
151 11 4 0.22795 15.045764406113324 24.296937330549394 14.38235451670529 0 0 0
3336 101 12 0 23.04775753318667 21.146135975916557 14.33045968669634 0 0 0
3343 101 12 0 18.746856459370953 21.42838637313762 11.635977865508147 0 0 0
3357 101 12 0 19.695395523371612 23.73564208739285 11.535378327715158 0 0 0
3344 101 12 0 19.834852336340465 22.356994050826625 11.859954679000543 0 0 0
3345 101 12 0 20.927635588891793 21.95612682665566 12.65003625960775 0 0 0
3346 101 12 0 21.755963826411804 22.916955812663176 13.257743869323562 0 0 0
3359 101 12 0 21.466576036522838 24.28392761669443 13.039901419473846 0 0 0
3358 101 12 0 20.54213317076404 24.7052853108704 12.08628052408469 0 0 0
3360 101 12 0 21.962222298644644 25.200227718972766 13.946648435376522 0 0 0
3187 101 12 0 20.255192328181494 26.08197048228164 11.875258458022746 0 0 0
3347 101 12 0 22.74911851210593 22.520809217266937 14.144094437132587 0 0 0
3348 101 12 0 23.25643181574493 23.490726774020604 15.037184938033135 0 0 0
3361 101 12 0 22.710933188720045 24.782738477482397 15.048169451466286 0 0 0
3186 101 12 0 19.307985407475787 26.37869705296199 10.898599967580891 0 0 0
2102 27 10 0.38 22.060641251317055 22.763429573697202 41.45615422585883 0 0 0
611 40 1 -0.38394 28.435763889715002 20.578039209474213 13.697463776807954 0 0 0
613 40 4 0.18425 27.836653759218837 21.00394375270797 14.471002273262867 0 0 0
480 25 4 0.1772 24.729727175756125 26.616387618328577 11.92702255587262 0 0 0
483 25 4 0.18777 23.87543984065253 24.234576519030856 11.847041913602382 0 0 0
478 25 4 0.18224 25.81212156305557 23.150003596911176 13.140882347963881 0 0 0
482 25 1 -0.37058 24.958166223553942 24.529735749728612 11.575140547589418 0 0 0