LAMMPS data file via write_data, version 29 Aug 2024, timestep = 50000, units = metal

720 atoms
2 atom types

-17.284862155802205 17.284862155802205 xlo xhi
-8.579178757271428 8.579178757271428 ylo yhi
-8.491043518232253 8.491043518232253 zlo zhi

Atom Type Labels

1 Si
2 O

Masses

1 28.0855
2 15.9994

Atoms # full

692 0 2 0 -12.795646468217804 -5.267244229734032 -5.13602082302817 0 0 0
652 0 2 0 -15.175987856018306 -4.115425997683733 -4.983480167759154 0 0 1
25 0 1 0 -14.295679142142697 -5.393990828070679 -4.578982053892863 1 0 0
554 0 2 0 -14.5888219238898 -3.3962040315455537 -7.415354303431735 0 1 1
599 0 2 0 -14.947313696524487 -6.71086686167642 -5.280985156867936 0 0 -1
199 0 1 0 -14.507400993161859 -8.14240512493049 -5.7570214515882325 0 -1 1
689 0 2 0 -16.480403797210414 -6.282779039117241 -8.176979377205923 0 0 1
421 0 2 0 -14.039452318699656 -5.713842022685798 -3.006044535540603 0 0 0
377 0 2 0 -11.720436246008067 -4.0835717478008915 -8.035992940355316 0 0 2
152 0 1 0 -11.661428362158595 -8.498495329039969 -4.555708287204592 1 0 0
257 0 2 0 -11.319187332811993 -6.75843374480422 -8.01290791919698 1 1 1
283 0 2 0 -10.97444622291004 -8.3769175507272 -6.036742581147399 0 1 0
660 0 2 0 -11.369819678492348 -7.038115703873869 -3.859235663292055 0 0 1
147 0 1 0 -11.276514489715101 -5.575973712039962 -4.634902430941704 0 1 0
426 0 2 0 -10.237299438905566 -5.916109860534418 -5.810614250636089 0 0 1
194 0 1 0 -10.32943094664586 -7.163111130321802 -6.836082536052631 0 0 1
390 0 2 0 -8.180087394089401 -3.971085341521734 -7.629342165872696 0 0 -1
252 0 2 0 -7.547945502092405 -5.896693805467812 -3.121325517114217 0 0 0
256 0 2 0 -10.902749521741875 -4.388991302698502 -3.64389332337434 0 1 1
629 0 2 0 -8.912155912172341 -7.5077615138895375 -7.448724017574465 0 1 0
655 0 2 0 -6.270230108908718 -4.9283313706797625 -5.161062322102912 0 -1 1
530 0 2 0 -6.038475014338323 -6.478740991700695 -7.17606553562079 0 0 0
115 0 1 0 -6.149474759921844 -5.218613776944274 -3.6080167179624683 0 0 -1
366 0 2 0 -5.736757984338322 -3.9142092025870596 -2.8690953365138903 0 -1 -1
424 0 2 0 -4.862776995361566 -6.15644818400324 -3.4868809052757337 1 0 -1
601 0 2 0 -3.8943361035032815 -5.670579299996874 -6.145959408135754 0 0 1
9 0 1 0 -5.4576799958550275 -5.213093653701613 -6.454702529871922 0 0 -1
48 0 1 0 -0.8755231343509848 -5.544267765827671 -4.069455028881568 0 0 0
641 0 2 0 -1.2070751314234371 -4.881600617009491 -5.555836160560441 0 0 0
694 0 2 0 -2.1890640004413022 -6.433671010984153 -3.6647581773331774 -1 1 -1
98 0 1 0 -2.653357553309192 -5.831875516615685 -7.102153501447619 0 0 0
96 0 1 0 -0.9138346974280829 -3.3790313528013947 -6.089258210949652 0 0 1
494 0 2 0 -5.20970217575937 -3.8148939362891925 -7.247496131519032 0 0 0
507 0 2 0 -2.1755433926691268 -7.281445958461316 -7.464003746607311 0 1 1
372 0 2 0 -0.3833504834237331 -3.371405553586758 -7.64483161249217 0 0 1
532 0 2 0 -2.8216005757083753 -4.653189227073113 -8.177199271711991 0 1 1
580 0 2 0 -0.7086981755824198 -4.45471045516766 -2.916865947074915 0 1 0
332 0 2 0 0.4649917038657314 -6.422907124595109 -4.193651370859273 0 0 -1
577 0 2 0 2.262248665275294 -5.480994042680091 -5.806952906781847 0 0 0
27 0 1 0 3.344962761607011 -5.4540412269507215 -6.970768891562535 0 0 1
713 0 2 0 4.64416551879231 -6.183450173593187 -6.443640746095767 0 0 1
36 0 1 0 2.041600081683331 -6.317381284300779 -4.500710308168568 0 1 0
415 0 2 0 2.722249282601336 -7.775460476345765 -4.559836285796791 0 1 1
526 0 2 0 3.644561129863547 -3.941532778973662 -7.467827921455503 0 1 0
695 0 2 0 2.8078601126140192 -6.1796358372900055 -8.267672246575074 0 1 1
403 0 2 0 2.847705784141933 -5.465435662654987 -3.3222945332758718 0 1 0
46 0 1 0 6.22501648795205 -5.843863486491694 -6.429781346139989 0 1 1
317 0 2 0 6.672340364024535 -5.292066989460064 -4.9947011852139 0 0 0
663 0 2 0 7.030572393284277 -7.151325888999014 -6.828229297126073 0 0 0
153 0 1 0 7.017023925949225 -5.427790801508849 -3.4872612825309917 0 1 1
316 0 2 0 6.462815312593925 -4.670534161650597 -7.579835701501605 0 0 0
468 0 2 0 7.318060989557367 -6.966766637610171 -3.2236590116966157 0 1 0
209 0 1 0 8.547117988110294 -7.888522164719934 -3.6960624747621216 -1 1 0
458 0 2 0 9.604996090199982 -7.094102476772626 -4.603916251807979 0 1 0
497 0 2 0 9.441062482444085 -6.55928325994068 -7.637810978503044 0 1 1
196 0 1 0 8.289855582128979 -7.715387012410901 -7.740689091195918 0 1 1
356 0 2 0 10.616305434684474 -4.397307378003388 -8.036160671310425 0 0 1
57 0 1 0 10.946828687344432 -5.896818942037044 -7.548070652924573 0 1 0
67 0 1 0 7.360944823163003 -3.317460710291953 -7.711172802317774 0 0 0
308 0 2 0 8.311561015865255 -4.509592202372787 -3.0919024838720643 0 0 0
76 0 1 0 11.140238346318146 -7.221569861471176 -4.9396236296577385 -1 1 0
522 0 2 0 8.301232344045665 -3.249442133101965 -6.403163455313759 0 1 0
578 0 2 0 11.430648823998833 -6.07454072459761 -6.0102791378423674 -1 0 1
592 0 2 0 13.254098155005831 -3.9991422186374654 -6.874998576461175 0 0 1
296 0 2 0 16.55888034887364 -5.852925679010805 -6.075724936208703 -1 0 0
437 0 2 0 16.271656335751164 -7.158354195553105 -3.84426034625103 -1 1 1
151 0 1 0 15.483875607069319 -6.501989854564094 -5.092845138540282 -1 0 0
518 0 2 0 16.57991659744302 -4.072316138362611 -7.862548430433145 -1 0 0
168 0 1 0 16.750522325384704 -5.658859265783475 -7.637756394966639 0 1 1
509 0 2 0 11.981816921432195 -7.176364165775682 -3.5367680762802305 -1 1 1
557 0 2 0 14.546237957951632 -5.403250616396815 -4.378305511802166 0 1 1
410 0 2 0 14.786125410356785 -7.747258988807082 -5.821523754988559 -1 2 0
107 0 1 0 14.774645685665693 -3.9467275514000626 -3.6667509178926023 0 0 0
392 0 2 0 13.426391210692142 -3.319649551865121 -3.02622459623697 0 0 0
624 0 2 0 15.51692659479681 -6.299980871610549 -8.424043096343125 -1 0 1
373 0 2 0 15.303360045472612 -2.8285946655114813 -4.722080507465915 0 0 0
63 0 1 0 -15.169947417158161 -2.8392978871157277 -6.015905007217353 1 0 0
489 0 2 0 -16.659140337652936 -2.3103587838127826 -6.398885185853881 0 1 1
295 0 2 0 -14.2376554958906 -1.5217019450536986 -5.687947789800493 1 1 1
286 0 2 0 -11.970844458036524 0.663854532829431 -3.5726026745111614 1 0 1
419 0 2 0 -13.35085376614104 0.9835877717099493 -5.729603315897837 1 -1 0
89 0 1 0 -12.982371496877274 1.6829169975153295 -4.295010152760724 0 0 1
631 0 2 0 -12.82536576459496 -0.6590219880510819 -7.873127219100302 0 0 0
142 0 1 0 -13.079194858786803 -0.5421056629691172 -6.296079397499573 0 0 0
556 0 2 0 -17.17635011443471 -0.7837273653080246 -3.2412107160956385 1 1 0
279 0 2 0 -11.707858861530399 -0.9207069277076858 -5.562041512990012 0 0 -1
615 0 2 0 -14.184197793565584 2.055326843152036 -3.284399529230285 0 0 1
564 0 2 0 -11.95755555257324 -1.814519861373153 -3.133761197967331 1 0 -1
617 0 2 0 -17.210726968649773 1.3351218394214222 -4.754420872850046 0 -1 1
125 0 1 0 -15.374557192998383 2.904695990676153 -2.7412454834260753 1 0 1
224 0 1 0 -11.278833380964633 -0.6916858256138916 -4.1037877153531 0 0 1
428 0 2 0 -7.215055872056256 -1.199429975347913 -3.555242194517861 0 0 0
31 0 1 0 -8.600697311436827 -1.9453794239456572 -3.832970089212173 0 0 0
86 0 1 0 -8.287397482536624 -2.613805916358894 -6.7921118520416615 0 0 1
436 0 2 0 -6.885171987599721 -1.901406861036575 -6.979866055337602 1 0 1
520 0 2 0 -8.499493053256005 -2.8176470639055484 -5.1846880544341545 0 0 1
633 0 2 0 -9.703724659800498 -0.8221123076285757 -3.9226481486114535 0 -1 1
401 0 2 0 -7.811920232226576 1.9214963354260632 -7.144558021863846 0 -1 1
608 0 2 0 -9.358042157915563 -1.7223942590995378 -7.508793093331997 1 0 0
90 0 1 0 -6.2747403853444155 1.4849415918049598 -7.370527792317361 0 0 0
163 0 1 0 -6.64197504633335 0.1551084691971507 -3.026980821025277 0 -1 -1
626 0 2 0 -9.912833143368346 2.844640367705738 -8.449505988038073 0 0 1
551 0 2 0 -2.218304782688472 -2.4870565086078464 -5.6606811922941045 0 0 0
513 0 2 0 -5.336379869619938 0.8240388451995138 -3.505512467653534 0 -1 0
304 0 2 0 -5.541720231170402 0.9406309342536634 -6.065292932126104 0 0 1
178 0 1 0 -5.365402132508873 -2.2710937964826803 -6.774214940351316 0 0 0
108 0 1 0 -3.385383891777053 -2.0122658199142753 -4.680669557655547 0 1 2
450 0 2 0 -4.821416215254356 -2.0547664461070045 -5.295353755499545 0 0 1
259 0 2 0 -3.227184614728296 0.3505243331900747 -4.900848176758684 0 0 1
136 0 1 0 -1.7029579505247767 0.7832821973414799 -4.772449426982936 0 -1 1
145 0 1 0 -4.536993360440661 1.2696175753309529 -4.869589204954224 0 0 -1
511 0 2 0 -1.5097234131467427 1.9881773102611167 -3.6849915588845583 0 0 0
701 0 2 0 -1.1728614326374753 1.2505696146360634 -6.182084613589382 0 -1 1
438 0 2 0 -4.494955249828143 -1.3441290587383579 -7.713369358903655 0 1 1
529 0 2 0 -0.7702217180840485 -0.4910322773321152 -4.340107006758151 0 0 0
398 0 2 0 -3.513907018822268 -2.3577425711666473 -3.1538906952967602 0 -1 1
141 0 1 0 0.0964855807155196 2.0565886312644484 -6.841783164052019 0 0 0
381 0 2 0 0.4237230469263693 1.497537547345372 -8.327594222998062 0 0 0
407 0 2 0 4.658963853376356 -2.5789778367215277 -5.129982238659251 0 -1 0
614 0 2 0 0.29309696843290567 -2.762717749244911 -5.2017233871524855 0 1 1
158 0 1 0 5.139017383812931 -1.2706330402755812 -4.441923222564847 0 1 0
361 0 2 0 1.732778747690439 -0.6945366098560379 -4.900070201695891 0 1 0
228 0 1 0 0.4539319269391875 -1.5056427666018948 -4.271252056154025 0 0 1
120 0 1 0 2.3343384796660303 0.3408670420167077 -5.951144487669895 0 0 0
569 0 2 0 3.938553532973401 0.4313685297795562 -5.705403089024944 0 0 2
446 0 2 0 2.2322581295122887 -0.14076625718978342 -7.476453699895178 0 0 1
343 0 2 0 1.3913629978932072 1.6296429774958536 -6.015688552052627 0 0 -1
118 0 1 0 4.918619858796504 1.2622576419911908 -6.68410368238154 0 -1 1
574 0 2 0 1.062700338448714 2.5613721863549657 -3.4559478855973227 0 -1 0
667 0 2 0 5.158691971827693 0.3732835138079249 -7.980229280271524 0 0 1
150 0 1 0 2.6369649496565124 2.6065011718194526 -3.153066340231553 0 -1 0
312 0 2 0 4.018772429935105 2.6387549814005986 -6.88922617423227 0 0 1
350 0 2 0 4.589373522740928 -0.9148290562427777 -2.998079465666934 0 0 0
517 0 2 0 6.6295177338925555 -0.8078229058255877 -4.716118736790676 0 1 1
698 0 2 0 6.191961988838603 1.7171034006741817 -5.915416314940828 0 0 1
501 0 2 0 10.860627321399928 -2.934901546539993 -5.7669595495767165 0 0 0
155 0 1 0 9.47649810624375 -2.213369264440759 -5.884310895258896 0 1 1
208 0 1 0 8.085574444058487 -0.32766857384852344 -4.206820093390031 0 0 0
432 0 2 0 9.10123261680533 -1.557397778560829 -4.468947857404414 0 0 1
255 0 2 0 8.213726525967779 1.3267369544446783 -7.532729711587273 0 0 1
475 0 2 0 9.513984592571983 -1.0958267771054953 -7.09465333478278 0 -1 0
637 0 2 0 8.52707840892716 0.9332775023903466 -5.096331880779507 -1 0 -1
230 0 1 0 7.784544487059215 1.9307603078113065 -6.083341059514389 0 0 0
225 0 1 0 9.378631923693181 0.28909170758927694 -7.948647074896038 0 0 0
597 0 2 0 10.74667170271507 1.0248934478994958 -7.69386142690437 0 -1 1
635 0 2 0 6.515958060509256 -1.891798076672 -7.768320853076224 0 1 1
130 0 1 0 12.391261141751347 -2.9018871517537157 -6.163212978592444 0 0 -1
172 0 1 0 16.691985263213528 -2.6050171702076366 -7.342104785587704 -1 0 1
408 0 2 0 15.484107046580345 -1.6916400087101433 -7.046220677980164 0 -1 1
538 0 2 0 13.227554117656986 -1.6456279185317406 -5.76490251288023 0 0 0
195 0 1 0 16.45948720739111 0.2994190456300565 -3.896646281492121 -1 -1 0
537 0 2 0 13.368018746598125 1.2872170042097757 -7.074509602800839 -1 0 1
340 0 2 0 15.295781336638267 -0.18769091156044482 -4.853278634467565 -1 0 0
97 0 1 0 14.796948764152258 -1.5211997218617244 -5.572150147407212 0 0 0
348 0 2 0 15.647138789882195 2.3520178467531494 -6.440262393661694 -1 0 1
93 0 1 0 12.260820325472093 0.767998711854764 -8.154745139280893 0 1 0
52 0 1 0 14.01742103938659 2.6439101937009237 -6.488575500396097 -1 -1 0
62 0 1 0 16.978673668880223 2.6460985479963632 -5.591514320359407 0 0 0
679 0 2 0 12.246825411384638 -0.7606792650777692 8.46165561317989 0 1 -1
288 0 2 0 -12.185789204606271 3.0354491884880215 -4.582743366343605 1 -1 0
697 0 2 0 -16.302908651814867 3.154222182135145 -6.414272735635416 0 -1 0
66 0 1 0 -16.17240954202573 4.222938407963888 -7.636655495811031 1 0 1
368 0 2 0 -13.22577678664198 8.444408755922325 -4.950777644135739 0 0 -1
616 0 2 0 -15.655501689082021 8.178950455782278 -6.410042557931446 0 -2 1
386 0 2 0 -16.626999799679545 5.735227166557333 -7.2814848256235365 0 -1 0
129 0 1 0 -16.630581939321008 6.872189345658104 -6.131740214224649 0 -1 0
352 0 2 0 -15.98277516765267 6.144311250921946 -4.811652756265289 1 -1 -1
237 0 1 0 -16.017922601052685 5.87991147812941 -3.246199867956732 1 0 0
342 0 2 0 -14.63237522851763 4.292828894021451 -8.042736389927807 0 0 1
568 0 2 0 -15.263757533680089 4.496416130843221 -2.771942408650837 0 0 0
405 0 2 0 -9.757407058563722 2.767679420280567 -5.707467130573649 0 -1 1
162 0 1 0 -9.039450749561762 2.9876088274358477 -7.204694507150592 0 0 1
675 0 2 0 -9.958389168382999 3.0400615036190537 -3.187549592566805 0 1 0
270 0 2 0 -10.750585905452763 7.540178178525675 -3.8567323954852615 0 -1 1
186 0 1 0 -10.596858594883688 3.455933901472303 -4.568408663545423 0 0 0
482 0 2 0 -10.65416198046323 6.099386913060808 -7.625011986759378 0 -1 0
149 0 1 0 -9.042787110569115 6.062910461736632 -7.229163209828325 0 -1 0
430 0 2 0 -10.513346478527279 5.033506865875639 -4.5705364413688105 1 -1 1
565 0 2 0 -8.926583741158863 6.6169398210082555 -5.674530255749017 1 0 0
83 0 1 0 -9.822477383017137 6.408226136954772 -4.387873905035001 1 -1 0
539 0 2 0 -8.497408833476612 4.534318753386627 -7.238526237987847 0 0 0
467 0 2 0 -8.293656767232303 7.1715709252141195 -8.163355910570747 1 0 1
135 0 1 0 -6.535747556451023 5.4309180418062795 -3.319368260468303 0 0 -1
603 0 2 0 -7.480669269282304 6.824604685398468 -3.1136642917819124 0 -1 0
287 0 2 0 -7.7458211765482865 4.321008079237645 -3.1440011982814404 0 0 1
636 0 2 0 -5.632637512588941 5.07303972572878 -4.561223685391031 0 -1 0
294 0 2 0 -4.219461710355953 2.876050237679914 -5.043374864590579 0 -1 0
596 0 2 0 -5.5673727970118865 2.8887587926901794 -7.584731283611776 1 -1 1
434 0 2 0 -4.145675164323361 7.383717652365988 -3.4601047907624585 0 0 0
583 0 2 0 -1.6039464697380321 6.682309551173992 -3.5571229361858245 0 0 0
21 0 1 0 -4.124952627922712 4.502108065050221 -4.876880051144407 0 0 1
498 0 2 0 -3.2906406851545356 5.1050059280718525 -6.106421702768529 0 -1 0
75 0 1 0 -3.138921229364618 5.706002217744869 -7.615992626769471 0 -1 1
519 0 2 0 -2.9250347304041036 7.311592968178491 -7.726191555547051 0 -1 1
418 0 2 0 -3.2834744363257453 4.904221147029693 -3.56362096810404 0 -1 1
177 0 1 0 -0.3299891532497128 4.625933876900286 -8.206857909512806 0 0 1
101 0 1 0 -0.23683611082812916 5.875027597522385 -3.5448582359697918 0 0 0
344 0 2 0 -1.9090636912693473 4.935991019941284 -8.396427442846138 0 0 1
227 0 1 0 -3.0596928164894255 6.3613725528298986 -2.9458097524469196 0 -1 -1
691 0 2 0 -0.20559761841603574 3.596601068934495 -6.993396238521734 -1 -1 0
478 0 2 0 0.4021995613928233 5.914981849362443 -7.633017276589913 0 0 0
277 0 2 0 0.2837657119585799 5.628100023013037 -5.018546321638809 0 0 1
493 0 2 0 4.436784746688627 7.512539885870073 -5.805067335130142 0 -1 0
82 0 1 0 3.085425005992601 7.856404838718724 -5.034638301400326 0 0 0
452 0 2 0 1.931434223359556 7.398863016190441 -6.050171767262701 0 -1 1
185 0 1 0 1.2392828521188335 5.935597400467353 -6.3015031538386035 0 0 0
222 0 1 0 3.7257922749532497 3.908104613273757 -5.890035715365448 0 -1 0
477 0 2 0 2.40118825600468 4.77907610633498 -6.237271881842366 0 -1 0
292 0 2 0 4.952757108734698 4.865810313975512 -5.927848969452451 0 -1 1
674 0 2 0 3.4627858550558024 3.259079521952666 -4.39781522102265 0 0 0
87 0 1 0 5.487447056162491 6.273368637685861 -5.445290836396019 0 0 0
620 0 2 0 3.1280130459678084 6.883822955152379 -3.780968623271632 0 0 0
632 0 2 0 5.587451680516793 6.23274061138234 -3.881030017607957 0 0 0
417 0 2 0 8.81451421712691 8.098043909281746 -7.099654510740951 0 0 1
666 0 2 0 10.192531025253576 3.863102410451768 -6.953537814613729 0 0 1
271 0 2 0 8.051445601992633 3.4755138297513515 -5.824508395067279 0 0 1
504 0 2 0 10.070071369507719 3.793260155127557 -4.30492771239903 0 0 1
23 0 1 0 10.59906570863437 4.406640006810205 -2.9519106329786613 -1 1 0
268 0 2 0 8.131731657520177 8.011462336674061 -4.602974000490557 0 0 0
138 0 1 0 9.419333871347316 4.3211609232701935 -5.632829189855359 0 0 -1
555 0 2 0 9.276860843350526 5.914406268528234 -5.70374548373915 0 -1 1
174 0 1 0 8.258418757759628 7.143481071910163 -5.9530465075634345 0 0 1
383 0 2 0 6.84002649270111 6.562502574654086 -6.271104301460468 0 0 1
388 0 2 0 10.115550340554446 6.018291217700908 -3.0119334548048675 0 0 0
355 0 2 0 11.563604581123165 8.438171907768403 -5.588013588565589 -1 -1 1
471 0 2 0 15.670581052181522 8.377694064342933 -8.149511129597938 0 0 2
313 0 2 0 16.44972216998131 7.357379936269323 -5.8641567920209 -1 0 1
374 0 2 0 13.47785105176252 3.2439702884213073 -5.069295508868011 -1 0 1
365 0 2 0 13.677678005463992 3.712387590022564 -7.696645585131908 0 0 1
627 0 2 0 16.579078015797474 3.8102014787465315 -4.532374908676981 0 0 1
26 0 1 0 15.228719443741372 8.05442839371408 -6.611262195146542 0 0 0
448 0 2 0 13.794205406261629 7.242557186807222 -6.6271841286295095 -1 -1 1
201 0 1 0 15.942317563259007 4.633716917732579 -3.2462754214410108 -1 0 0
165 0 1 0 12.413590198491576 7.133508162333504 -5.931724831234477 0 -1 1
702 0 2 0 12.382197669053223 5.6620960479129 -5.250194727314289 0 0 1
229 0 1 0 13.142847852162696 4.596414969419838 -4.265251659159723 0 -1 0
542 0 2 0 12.17413042473894 4.311611319710815 -2.992167113640093 0 -1 0
545 0 2 0 14.5381177130619 5.265685629357394 -3.7495741495206953 -1 -1 0
644 0 2 0 -13.0226924099765 -7.868811154368743 -1.7074363573706206 0 0 0
240 0 1 0 -15.448278221765406 -5.091649719637703 0.40777010720886153 1 1 1
322 0 2 0 -14.366189561447907 -6.061123470058526 -0.3452244495766692 0 0 0
336 0 2 0 -14.688549204364554 -3.760352001849598 0.6617421568339719 0 0 0
53 0 1 0 -14.235249172676154 -6.7738548577141575 -1.7855610056988827 0 1 -1
594 0 2 0 -16.715753741298986 -4.838139009265328 -0.5662322078181763 0 0 0
505 0 2 0 -16.032752654806615 -5.731486313040746 1.7885993101224074 0 -1 0
714 0 2 0 -15.624571655173838 -7.536835791252731 -2.000607254592757 0 1 0
124 0 1 0 -12.017134859030726 -8.429044893549603 -0.5451997402851694 0 0 1
112 0 1 0 -17.132846010365206 -6.615539389187992 2.6207754859572177 0 -1 0
492 0 2 0 -16.733262744201177 -8.146344047868256 2.395299173075184 0 -1 1
324 0 2 0 -12.90082134066699 -2.7712128035299877 2.2161801191606756 0 0 0
203 0 1 0 -10.171810787369996 -4.052605362637833 -2.261715700796872 1 1 0
221 0 1 0 -8.59123260792912 -6.502831511577841 -2.13502678023793 0 0 1
604 0 2 0 -8.580994563977171 -8.065086986511728 -2.109825419677801 0 0 0
433 0 2 0 -10.842473375595148 -7.3798500983437965 -0.17459274325906726 1 0 0
400 0 2 0 -9.634483793586284 -5.458924678158052 -1.737718108388468 0 0 0
439 0 2 0 -7.01702504115821 -4.012674735406117 0.27491293556903074 0 0 1
205 0 1 0 -6.767706181517406 -5.588741055408839 0.4641175143014493 0 0 0
422 0 2 0 -8.231332304250927 -6.380297301812092 0.24550291316802308 0 1 -1
218 0 1 0 -9.662968763198787 -7.023662847213353 0.8606464383789216 0 1 0
305 0 2 0 -11.090656166491522 -3.2870178462197437 -1.2241617522618204 0 0 0
298 0 2 0 -10.11918874055628 -6.070599742850218 2.014686699859812 0 1 0
521 0 2 0 -6.196903574016627 -5.911555938599575 2.0142250908532624 0 0 0
487 0 2 0 -6.0473884567135485 -8.422389012214296 -1.9935163255799884 0 0 0
416 0 2 0 -5.8384014315266555 -6.219125947420723 -0.660276300862706 0 0 0
41 0 1 0 -3.435729272367956 -6.159935488498498 -2.694381688450962 0 1 -1
154 0 1 0 -5.071015718309649 -7.589607028591989 -0.9813978945546618 0 1 0
251 0 2 0 -3.6144324485866797 -7.277381920718665 -1.549180353698267 0 1 1
402 0 2 0 -1.000641163260891 -4.423361671291729 2.0983096700348263 0 0 0
589 0 2 0 -1.0431462373142288 -5.313467278596354 -0.39472977512070173 0 1 0
169 0 1 0 -1.0673195389571575 -5.773689917391108 1.1636734288093162 0 0 0
242 0 2 0 -2.354727319380167 -6.562717771216592 1.5484177125785745 0 0 0
643 0 2 0 -3.482275807384367 -4.662163223919892 -2.0016121951994537 0 0 0
198 0 1 0 -4.3838113005943775 -3.288631320069176 -2.1112240858385922 0 0 1
719 0 2 0 -4.982210213657895 -8.37750464432089 0.4367667538112574 0 0 1
369 0 2 0 -0.3062420240953152 -2.888245704381614 -0.7999995976304595 0 0 0
34 0 1 0 -0.16307213594870973 -4.407332157702411 -1.3764355889345676 0 0 0
642 0 2 0 -3.1779782725699093 -2.8743465481069848 2.5370154569454524 0 0 0
474 0 2 0 0.2794851792202486 -6.639623453769235 1.577261137164351 -1 1 -1
593 0 2 0 3.8528373557573836 -4.34669853804861 -0.8978140414808511 0 0 0
3 0 1 0 2.8298862123625135 -5.4577797248301065 -1.704463370269524 0 0 1
647 0 2 0 1.304771355672095 -5.017191491423228 -1.3513530312847521 0 -1 -1
300 0 2 0 4.310377925744945 -3.4294407940873377 1.7792821385210171 0 0 0
119 0 1 0 3.2035481611554992 -3.9074784692546043 0.6095754439065484 0 -1 0
669 0 2 0 3.2525513092329916 -6.975674309505655 -1.1679172948249574 0 2 0
193 0 1 0 4.390793023005724 -8.124847506469122 -1.006824863934619 0 1 0
579 0 2 0 2.4859763058465703 -5.236424250636709 1.131917770194704 0 1 0
560 0 2 0 2.6640211722268887 -7.697941062682918 1.8664328897714508 0 1 -1
204 0 1 0 1.855143747101117 -6.402123886907748 2.0753210106841227 0 0 0
235 0 1 0 5.4962919183010825 -4.251897518609456 -1.1648534298653725 0 0 0
406 0 2 0 5.729377591912172 -7.436671709720957 -0.4511220705203396 0 -1 0
357 0 2 0 5.879407098110558 -6.567632640465791 2.098570713289204 0 -1 0
420 0 2 0 5.826999321580807 -4.937352166205358 -2.554485598493007 0 1 1
384 0 2 0 10.823854769741505 -3.66706657854039 -2.5095285181088958 0 0 1
311 0 2 0 6.1602605073936125 -5.008559603817222 0.09097822123779231 0 1 0
216 0 1 0 6.431723853542362 -6.490247554967024 0.6394917205274933 0 1 -1
29 0 1 0 9.290651467626368 -3.9803314196634325 -1.9550709894984708 0 0 0
20 0 1 0 9.326298893043802 -5.967774933943597 0.5242991432064468 0 0 0
253 0 2 0 9.097155833508907 -4.899055288848748 1.6841553323973866 0 1 0
707 0 2 0 7.992775677069414 -6.895531566828441 0.5297924585391023 -1 0 -1
334 0 2 0 10.667120546619955 -6.747313250620966 0.8436287423837641 0 1 0
512 0 2 0 9.411406421715515 -5.228658569169939 -0.9452285682516637 0 0 0
7 0 1 0 10.990061736696394 -7.74116406144185 2.099243080139278 0 1 -1
576 0 2 0 9.564705738333334 -8.04602008130733 2.7550555426047065 -1 1 0
414 0 2 0 6.085348322184654 -2.771684876577897 -1.1214744328322004 0 1 1
74 0 1 0 12.960010744461101 -6.8517341807985455 -2.359488467646216 -1 0 0
462 0 2 0 14.237277084778704 -7.780030868469803 -2.29480093891572 -1 0 0
375 0 2 0 15.987144624817038 -6.408707355727387 -1.2830432407598007 0 0 0
104 0 1 0 15.824683048413409 -7.563601915986253 -2.352514690642515 0 0 0
232 0 1 0 16.278152674561742 -4.782986802757689 -1.0249221321449928 0 1 0
175 0 1 0 12.31541952322096 -3.8917135999015855 -1.995879017450342 0 0 0
453 0 2 0 12.721576119697346 -5.443086253229216 -1.7350736619540221 0 1 0
276 0 2 0 15.436000812181636 -4.401023958716133 0.3122998621536812 -1 0 1
349 0 2 0 15.800057743973614 -4.135291185836962 -2.419221365780767 0 0 0
571 0 2 0 12.474068602961669 -3.069887596591724 -0.5806968400369881 0 1 1
110 0 1 0 15.503981351655735 -4.77762625175995 1.8316327289755154 -1 0 0
397 0 2 0 15.984203147808802 -6.399187643799729 1.9612394510342526 0 1 0
284 0 2 0 13.728645294046366 -7.195942341153107 0.589191002634923 -1 -1 0
11 0 1 0 14.94972892327689 -7.660807365498058 1.4956339461006056 -1 1 0
459 0 2 0 16.672899287887237 -3.95596632800129 2.6272681065674846 -1 0 -1
263 0 2 0 -15.64738679456162 -2.6571810815216876 -2.5470832915432924 0 1 1
109 0 1 0 -14.41456457001121 -2.5241347373121936 1.6937893882430242 0 -1 0
105 0 1 0 -16.42997479733318 -1.4432156576441413 -1.9052263054397693 0 0 0
514 0 2 0 -16.685789950365795 2.399212939177014 -2.0368417529456098 0 0 0
254 0 2 0 -13.276928780530511 -1.68390093316944 -0.8765929777736217 0 1 0
536 0 2 0 -13.142000672013303 0.7517451725109989 -0.15260487502773223 1 0 0
528 0 2 0 -14.682674080120659 -1.065202447536623 1.0780141389542681 0 1 0
238 0 1 0 -14.182106118140776 -0.4623952801851665 -0.33482000471850526 1 0 0
337 0 2 0 -15.420054384426958 -0.32516106622727214 -1.31878184625318 0 1 0
341 0 2 0 -14.556952612432271 1.9704639137937079 2.483817331690382 0 -1 0
85 0 1 0 -11.84100012013815 -1.913693583026503 -1.5747251014067114 1 0 1
586 0 2 0 -8.923451430730001 -3.0914616462612257 -2.686159168016002 0 0 1
180 0 1 0 -11.521549617770809 0.455422899969264 0.07652385504802872 0 0 1
444 0 2 0 -11.53634612641843 -0.33677694210838993 1.5234716864836617 0 -1 1
30 0 1 0 -6.074771596576115 -2.6462209718185186 0.36344764749939173 0 0 0
380 0 2 0 -10.969922804790357 -0.6211896995595048 -1.0078181842997047 0 -1 0
353 0 2 0 -10.662163076630828 1.7942302136876602 0.14650275012492742 1 0 1
207 0 1 0 -9.144291644214395 2.3203733349598483 0.4146624999972559 1 0 0
360 0 2 0 -8.178522988296848 1.0268819243392464 0.6589145406521979 1 0 0
315 0 2 0 -6.833851745591366 -1.2379569617584414 -0.051781920903517076 0 1 0
65 0 1 0 -6.961587260113673 0.37880019515900365 -0.1625878033484245 0 -1 0
495 0 2 0 -7.319165137105227 0.5660163440862735 -1.710336083273635 0 0 0
470 0 2 0 -5.5934191271428535 1.0876880073536572 0.2770817844041833 1 0 1
600 0 2 0 -5.684836748538299 -2.591732853403835 1.961009246808068 1 0 0
712 0 2 0 -1.4773072201650894 -0.7677346616557781 -1.5701257390921715 0 0 0
445 0 2 0 -4.8559061398878 -2.743963046409255 -0.7084626732415504 0 0 0
440 0 2 0 -4.293004852103888 -0.5619889800625089 1.7297243363752024 0 0 0
127 0 1 0 -4.656502644247601 1.0345022886582527 1.558625954322288 0 -1 0
443 0 2 0 -0.7236078870591172 1.2187481247748142 1.0880004854835992 0 -1 0
111 0 1 0 -1.8170634582191045 1.7550882068918963 2.1459544392177285 0 0 1
364 0 2 0 -3.275450667345103 1.7710256595986724 1.4572028873501779 0 0 0
325 0 2 0 -0.3015790905219973 2.2324426578017835 -1.265864273668761 0 0 0
14 0 1 0 -4.403951322121554 -1.8836474686298255 2.673268765884023 0 1 0
233 0 1 0 -0.37832248504327026 2.760332807207689 -2.8035508471504924 0 -1 0
132 0 1 0 -0.007147828972016157 -1.422765928855302 -1.3529432229618275 0 0 0
703 0 2 0 3.1998998840688273 1.175307133850957 -2.6530600908253383 0 0 -1
503 0 2 0 0.7891243091274305 -1.7917608703085373 -2.758988007473868 0 0 0
499 0 2 0 -0.18700841379797595 -1.5282221953117334 1.5891830217231249 -1 0 0
665 0 2 0 2.125835714547584 -2.7260574899193646 0.3884803608987575 0 0 0
128 0 1 0 0.37727118801309345 1.2834401540082592 -0.1334096508979794 0 0 -1
621 0 2 0 0.8358675363488679 -0.1766208840726371 -0.7062240707357246 0 -1 0
164 0 1 0 4.342201579267702 0.29817650763073367 -1.983752129010365 0 0 -1
157 0 1 0 1.3760187856951482 -1.7931134542886014 1.5314281994140089 0 0 0
389 0 2 0 2.4768835714326443 -0.5774721936243647 1.7824459425578585 0 0 0
258 0 2 0 3.848255010820953 -0.31921012329358334 -0.558651013262522 0 0 0
213 0 1 0 3.8410638954501586 -0.06407266465383543 1.0266877263631482 0 0 0
584 0 2 0 3.9311636079505377 1.5013905984042424 1.3178711339870812 0 -1 -1
266 0 2 0 5.162355677709456 -0.786451845085967 1.5575799283775194 0 0 -1
541 0 2 0 1.6389198119997808 2.105034503294533 0.4444858617959113 0 0 -1
33 0 1 0 2.885839932657852 2.7100948282886943 1.2560871613553726 0 0 0
559 0 2 0 5.670122480075051 1.1964876598796241 -1.767841622532604 0 0 0
548 0 2 0 8.621151874733414 -2.727467909449776 -1.2225997539349116 -1 2 1
645 0 2 0 7.959935999475448 0.19914610770118735 -2.7162254876668745 -1 -1 1
581 0 2 0 10.877055817918443 -2.4879247842312724 1.3117109248856327 -1 0 -1
133 0 1 0 6.538301130936045 -1.3082514734776742 2.2475881898828227 0 1 0
10 0 1 0 7.241247946129938 0.8541468429782348 -1.4522500693796703 0 -1 1
706 0 2 0 8.030220601793108 1.9569524238546414 -0.7160139065567268 -1 0 0
610 0 2 0 7.173665894346879 -0.4498431772378364 -0.5038266756039285 0 0 0
590 0 2 0 7.361775896486467 -2.255805835386864 1.1930500989433082 0 0 0
15 0 1 0 7.348648815343235 -2.046894475463632 -0.3729845810870973 0 0 0
525 0 2 0 7.3496944506164965 -0.062348141235736065 2.710352756701555 0 0 -1
250 0 2 0 11.056598511610432 -0.8723658809814054 -0.7884605958721851 0 0 -1
595 0 2 0 11.530390601883163 1.2620260230349292 1.4636729538051618 0 0 0
709 0 2 0 17.134509846116995 1.127865442529977 2.2540776784708516 0 0 1
496 0 2 0 15.726806136187275 1.1948909098341574 -2.793896306812062 -1 0 0
619 0 2 0 17.06112752396005 -1.8674543367543155 -0.8467046629906383 0 0 1
84 0 1 0 16.879111555229986 2.288082801151072 1.1672158175192244 0 -1 0
192 0 1 0 11.806558687408522 -1.8371066649779095 0.17897841141962267 0 1 0
558 0 2 0 12.928679389013325 -0.916083978642809 0.9295329444828013 -1 0 0
376 0 2 0 16.324063282914192 1.7765874191327313 -0.24172823594358128 -1 0 0
19 0 1 0 16.289969207865457 2.247590470012959 -1.7528996603726084 0 0 0
140 0 1 0 12.835404018719668 0.4645780028670803 1.820974009844985 -1 -1 -1
591 0 2 0 14.141148702249595 1.3665869204447496 1.6438292386331472 -1 -1 -1
718 0 2 0 -16.28830063484865 3.042295560625874 0.8888794297078579 1 0 0
687 0 2 0 -12.963218523254842 8.495477324635377 0.7838957881518454 1 0 0
486 0 2 0 -16.249926078858138 7.984193260750363 0.040083716251267276 1 0 0
72 0 1 0 -16.317091619262094 8.273713510233488 -1.5318595257817025 0 0 0
442 0 2 0 -12.256554038600838 6.200819908439735 1.937874826221229 0 -1 0
45 0 1 0 -12.258480573771774 4.652817715854118 1.3571496941163108 1 -1 0
598 0 2 0 -13.808067050662114 4.089409694820873 1.198038503623044 0 -1 0
116 0 1 0 -13.26383116968709 7.503903142766724 2.0074432289267943 0 -1 0
354 0 2 0 -15.56637372759951 7.116057556001881 -2.3640503964805077 1 0 0
68 0 1 0 -15.05833813196125 3.371247510690564 1.9048584773773793 1 0 0
243 0 2 0 -14.683200512957422 6.758451402333611 2.0649561677008563 0 0 -1
314 0 2 0 -17.135422694319782 6.416043259903079 2.1675751543533703 0 -1 0