LAMMPS data file via write_data, version 29 Aug 2024, timestep = 30000, units = real

1680 atoms
5 atom types
812 bonds
1 bond types
406 angles
1 angle types

-12.120000000000001 12.120000000000001 xlo xhi
-12.120000000000001 12.120000000000001 ylo yhi
-20.2 20.2 zlo zhi

Atom Type Labels

1 O
2 H
3 Na+
4 Cl-
5 WALL

Bond Type Labels

1 O-H

Angle Type Labels

1 H-O-H

Masses

1 15.9994
2 1.008
3 22.99
4 35.453
5 26.9815

Atoms # full

26 0 5 0 -9.696804880237652 -8.466296563839018 -15.985802044743963 0 0 0
27 0 5 0 -9.623000749540598 -10.485201142020667 -13.948597466296532 0 0 0
29 0 5 0 -7.656797362551296 -10.544847191854018 -15.9355589667826 0 0 0
30 0 5 0 -5.576197239189493 -8.487613201763166 -15.960910025752439 0 0 0
31 0 5 0 -5.624609609076078 -10.591618684304466 -13.99290076481252 0 0 0
32 0 5 0 -7.600975349135517 -8.486193606368607 -14.000146567051104 0 0 0
51 0 5 0 -9.642269046270194 -6.38801140701667 -13.951439063460851 0 0 0
53 0 5 0 -7.622355202575725 -6.5321087804027425 -16.002048423023087 0 0 0
55 0 5 0 -5.657100240322985 -6.405514368687255 -13.922577029329895 0 0 0
50 0 5 0 -9.617099710183249 -4.364522263792854 -16.01069185917838 0 0 0
25 0 5 0 -11.637878691696654 -10.615774588371524 -15.897940619503117 0 0 0
28 0 5 0 -11.599411923251216 -8.500076885420837 -13.969370729490645 0 0 0
49 0 5 0 -11.681948854082629 -6.473623186983981 -15.992108400244295 0 0 0
52 0 5 0 -11.707427323932976 -4.45714893469526 -13.967863291363106 0 0 0
54 0 5 0 -5.6621062705946255 -4.436152305376809 -15.850023233162043 0 0 0
56 0 5 0 -7.592255115986931 -4.341099719188613 -13.966584102558105 0 0 0
33 0 5 0 -3.543254659634594 -10.428618145845855 -15.975231069126579 0 0 0
36 0 5 0 -3.602322801476366 -8.361334758875856 -14.020329934117099 0 0 0
57 0 5 0 -3.629482442361959 -6.461001163968245 -16.012200243336014 0 0 0
34 0 5 0 -1.5339778199568141 -8.526965643626474 -16.066834933923317 0 0 0
35 0 5 0 -1.5059592606638879 -10.405635260092021 -14.016440488688355 0 0 0
37 0 5 0 0.5455628714877171 -10.538754537311146 -16.084661001142894 0 0 0
38 0 5 0 2.65754638241966 -8.504535514030543 -16.106960956735005 0 0 0
39 0 5 0 2.4497514538777105 -10.53856002569963 -14.05625632115208 0 0 0
40 0 5 0 0.5084501624995873 -8.422132391893962 -14.016171095159642 0 0 0
59 0 5 0 -1.5162302887204684 -6.43684887487392 -13.990317076401686 0 0 0
61 0 5 0 0.446202477072037 -6.495050497675346 -16.032207596146257 0 0 0
63 0 5 0 2.504901305292508 -6.472232707246576 -14.01189860469432 0 0 0
60 0 5 0 -3.546198279165281 -4.387061424944009 -13.952145273161808 0 0 0
58 0 5 0 -1.6003278136930197 -4.427083402787763 -15.935264208228718 0 0 0
62 0 5 0 2.6390644880052014 -4.453169792454982 -15.9910721520017 0 0 0
64 0 5 0 0.4584969302964736 -4.412147476832543 -13.959261462752835 0 0 0
163 0 5 0 0.4827048891370136 -10.52762702707289 -12.015429148863285 0 0 0
44 0 5 0 4.489068286982508 -8.529710151220018 -14.035497302574965 0 0 0
65 0 5 0 4.580999573613293 -6.505101159903631 -15.925553548341904 0 0 0
41 0 5 0 4.563794580312801 -10.505329841328994 -16.067638514145905 0 0 0
42 0 5 0 6.559142944078719 -8.525642923873216 -15.896834403752925 0 0 0
43 0 5 0 6.538498397394199 -10.53449998034707 -13.975742506233635 0 0 0
45 0 5 0 8.557248165597418 -10.536774561505881 -15.899167212957055 0 0 0
46 0 5 0 10.608069089700962 -8.492632123873127 -15.85450978438908 0 0 0
47 0 5 0 10.590471465154556 -10.577277135957036 -13.924680881654231 0 0 0
48 0 5 0 8.552218814055893 -8.503216718198438 -13.908847402859704 0 0 0
67 0 5 0 6.577224473453675 -6.46423842617004 -13.944022656745481 0 0 0
69 0 5 0 8.655863243080184 -6.448883854628474 -15.993304453578048 0 0 0
71 0 5 0 10.610764682884446 -6.481518816090314 -13.83523991458478 0 0 0
66 0 5 0 6.597699842895945 -4.507231119687572 -16.031000314029935 0 0 0
70 0 5 0 10.603342883524961 -4.401373905294214 -15.951009247304242 0 0 0
68 0 5 0 4.6467628898849975 -4.427746201858512 -14.00164123825235 0 0 0
72 0 5 0 8.572541134220751 -4.450786090041007 -13.907708283902927 0 0 0
74 0 5 0 -9.686933511111574 -0.36229009234788373 -15.921486628720924 0 0 0
75 0 5 0 -9.660449912202214 -2.4116217648257194 -14.022675892199265 0 0 0
77 0 5 0 -7.6170986070055235 -2.386209524445611 -16.022595006920962 0 0 0
78 0 5 0 -5.561298624410396 -0.38182657611198556 -15.973458564207371 0 0 0
79 0 5 0 -5.546608503996511 -2.3743780850998597 -13.900441608799367 0 0 0
80 0 5 0 -7.62976840890736 -0.4072649926707311 -14.002576165499246 0 0 0
99 0 5 0 -9.60618543494752 1.6574847005302664 -13.908432980018564 0 0 0
101 0 5 0 -7.596041389137043 1.6554720333143949 -15.974457819281488 0 0 0
103 0 5 0 -5.5362078231968175 1.6385046395496832 -13.915267084619916 0 0 0
97 0 5 0 -11.54644918447171 1.6385586047126257 -15.970248357590469 0 0 0
76 0 5 0 -11.58952327834425 -0.35107915915533805 -13.937796454465921 0 0 0
73 0 5 0 -11.632261838758005 -2.4257665563159563 -16.04548118223817 0 0 0
98 0 5 0 -9.63806820065499 3.582966256202571 -15.925952916211846 0 0 0
104 0 5 0 -7.540084681574435 3.6740163371172123 -13.927171090762156 0 0 0
102 0 5 0 -5.5486430206928254 3.714058662441007 -15.865091361241369 0 0 0
100 0 5 0 -11.6129195314509 3.608621154672441 -13.856234455996773 0 0 0
84 0 5 0 -3.5332754566046987 -0.389594701514095 -13.87830219903651 0 0 0
105 0 5 0 -3.4728721888355523 1.6098985935913306 -15.899851924280542 0 0 0
81 0 5 0 -3.5546607003307225 -2.4286256930882786 -15.860490509434312 0 0 0
82 0 5 0 -1.586458979980497 -0.4215538833119569 -15.979336474437414 0 0 0
83 0 5 0 -1.5768233190953478 -2.459781336655989 -13.929917096731568 0 0 0
85 0 5 0 0.6016182642646569 -2.524295524014391 -16.095979621380057 0 0 0
86 0 5 0 2.489956988730462 -0.3797141019087328 -15.92466979230797 0 0 0
87 0 5 0 2.513775779879918 -2.389691231791075 -13.975383192393256 0 0 0
88 0 5 0 0.46827862759581196 -0.47500402341129244 -14.004963580197817 0 0 0
109 0 5 0 0.4634575163488163 1.5730518728147194 -15.936629452090248 0 0 0
111 0 5 0 2.5509001006407424 1.597452392923791 -13.94750014180927 0 0 0
107 0 5 0 -1.6173547900050862 1.6823649056770442 -13.909554399521372 0 0 0
106 0 5 0 -1.5382466331450035 3.630984940136729 -15.868134719460063 0 0 0
110 0 5 0 2.4665536754284165 3.6446009722958665 -16.04692725800252 0 0 0
108 0 5 0 -3.503067422626755 3.666243748522112 -13.896745613551456 0 0 0
112 0 5 0 0.5595340376635136 3.6459991855967417 -13.999547465726264 0 0 0
89 0 5 0 4.63738890196889 -2.423370955299693 -15.888207591617189 0 0 0
92 0 5 0 4.5541795782408405 -0.4307566409284715 -13.94728940912445 0 0 0
113 0 5 0 4.567031012680708 1.696282378926156 -15.904076531123438 0 0 0
90 0 5 0 6.670664954114257 -0.3382522654071766 -16.020024419623844 0 0 0
91 0 5 0 6.624576284580091 -2.4925388660250807 -13.984689936089456 0 0 0
93 0 5 0 8.591701097441632 -2.400684146736971 -15.924213639815894 0 0 0
94 0 5 0 10.702010384904991 -0.39096656492997 -15.88234062200157 0 0 0
95 0 5 0 10.586580025719117 -2.3768999032761275 -13.983725424650018 0 0 0
96 0 5 0 8.60433761900336 -0.3807102801779885 -13.988706363307493 0 0 0
115 0 5 0 6.609829155098247 1.6197002181899125 -13.95326441212623 0 0 0
117 0 5 0 8.620696742650118 1.703450900838774 -16.01661547810365 0 0 0
119 0 5 0 10.593484578475397 1.7144517031573951 -13.8885877161371 0 0 0
118 0 5 0 10.641238304585793 3.7849752637287604 -15.847246687732875 0 0 0
114 0 5 0 6.607034297195625 3.6564122368674847 -15.902856081811683 0 0 0
116 0 5 0 4.561348865652596 3.6227161409341866 -13.886470356936119 0 0 0
120 0 5 0 8.621517957980632 3.6936266398660877 -13.8266147247802 0 0 0
8 0 5 0 -7.602593311339121 11.711453765312202 -13.9453582946619 0 -1 0
4 0 5 0 -11.649930580163266 11.738456955168932 -13.912114045764708 0 -1 0
6 0 5 0 -5.613341051561063 11.619278640580998 -16.01232114762913 0 -1 0
2 0 5 0 -9.595445476177474 11.709137838720846 -15.9401988461636 0 -1 0
3 0 5 0 -9.567156991672137 9.720646862526085 -13.969264141613433 0 -1 0
7 0 5 0 -5.583065135595803 9.697295210619851 -13.916005549700078 0 -1 0
5 0 5 0 -7.527271153097904 9.637669998171795 -15.915900773505703 0 -1 0
122 0 5 0 -9.627255921811733 7.6980109615727335 -16.04109964099667 0 0 0
123 0 5 0 -9.618828028868895 5.614456192939989 -13.865786842134616 0 0 0
125 0 5 0 -7.62766050232961 5.645611718236073 -15.927748276512014 0 0 0
126 0 5 0 -5.6162796019925425 7.614939670559811 -15.994549014667617 0 0 0
127 0 5 0 -5.571554357278367 5.7565540707451515 -13.858693617514424 0 0 0
128 0 5 0 -7.53347284042989 7.713242608830755 -13.95014538737989 0 0 0
124 0 5 0 -11.638797292064991 7.694101261326574 -13.891724168627913 0 0 0
121 0 5 0 -11.533000730979948 5.680272635080482 -15.84101066517707 0 0 0
1 0 5 0 -11.58022618377856 9.686526492133437 -15.87759929223085 0 -1 0
147 0 5 0 -7.5296239534101295 9.704622536839864 -11.8465435385105 0 -1 0
14 0 5 0 2.5693501427635987 11.72777103928803 -16.00689873795738 0 -1 0
12 0 5 0 -3.488804527943201 11.707443642499442 -14.022778816291922 0 -1 0
10 0 5 0 -1.515292463602629 11.716653846559817 -15.974956017563661 0 -1 0
16 0 5 0 0.5004014231429532 11.740834313778729 -14.058488648726176 0 -1 0
132 0 5 0 -3.5601429623308607 7.7037012597948475 -14.019878103105116 0 0 0
9 0 5 0 -3.5846804983508123 9.67536644742774 -16.022855603751136 0 -1 0
129 0 5 0 -3.5391344622327474 5.699945560053198 -15.93402697282326 0 0 0
13 0 5 0 0.5174988709253435 9.713464665787644 -16.021414102154353 0 -1 0
11 0 5 0 -1.5265831558639846 9.699945857199772 -13.959964111277632 0 -1 0
15 0 5 0 2.5733263374753212 9.684149097429158 -13.951472007867423 0 -1 0
130 0 5 0 -1.5041453424000768 7.668180919481937 -16.028388586797398 0 0 0
131 0 5 0 -1.447025604007101 5.7067942816834965 -13.933010459803027 0 0 0
133 0 5 0 0.571642405642948 5.655353865431157 -15.928724066014338 0 0 0
134 0 5 0 2.492821796247074 7.699396350074079 -16.040377006357588 0 0 0
135 0 5 0 2.541005288670917 5.669302431507737 -14.012602097231829 0 0 0
136 0 5 0 0.4991358581657343 7.693856475332307 -13.961239887047684 0 0 0
17 0 5 0 4.527422954695854 9.672907648083381 -15.94083948350077 0 -1 0
22 0 5 0 10.536197014244959 11.6791389969623 -15.942283440137784 0 -1 0
20 0 5 0 4.53466574027711 11.762586759935271 -13.980222535678447 0 -1 0
24 0 5 0 8.589149658989863 11.666924842722771 -13.841166681791451 0 -1 0
18 0 5 0 6.604626555436954 11.64820247460292 -15.963868409582464 0 -1 0
137 0 5 0 4.549150911909186 5.674525061500464 -16.013737527592806 0 0 0
140 0 5 0 4.550149726267761 7.637477566750317 -13.940967080943585 0 0 0
21 0 5 0 8.570691701818163 9.630902994984543 -15.88789983096103 0 -1 0
19 0 5 0 6.5261989155720626 9.773189343123791 -13.919500501191136 0 -1 0
23 0 5 0 10.552602883363095 9.747666767435692 -13.8528962877009 0 -1 0
138 0 5 0 6.570047241883111 7.674347485426367 -15.86874698244753 0 0 0
139 0 5 0 6.583070962423585 5.650945275096615 -13.844514628250042 0 0 0
141 0 5 0 8.598308267482263 5.733252117316452 -15.871501848143952 0 0 0
142 0 5 0 10.644753196984569 7.689142402346844 -15.796441878231734 0 0 0
143 0 5 0 10.642462177680045 5.7178335949586 -13.815073162428336 0 0 0
144 0 5 0 8.526811022984571 7.679104113054442 -13.854204624774251 0 0 0
158 0 5 0 -9.65353823112245 -8.448813201793278 -11.972473643515022 0 0 0
160 0 5 0 -5.550408834663948 -8.547211315408642 -11.972530071666336 0 0 0
159 0 5 0 -7.6346224273237 -10.502597122693718 -12.00513378247173 0 0 0
171 0 5 0 -7.649845892755927 -6.42178130131534 -11.977741446077701 0 0 0
634 68 1 -1.1128 -7.366997978653793 -8.405438638385316 -9.641172658792144 0 0 0
636 68 2 0.5564 -6.634853662220936 -9.01021621681162 -9.521007689229155 0 0 0
566 45 2 0.5564 -6.022193141102648 -7.040376992771952 -9.754670589223965 1 0 0
565 45 1 -1.1128 -5.637528147450241 -6.180681798526873 -9.583823176493308 1 0 0
2400 0 4 -1 -9.826824852115802 -10.116921474024021 -8.801835039035176 1 0 0
500 23 2 0.5564 -7.8840069655434135 -11.437500950705662 -9.561046400854062 1 0 0
635 68 2 0.5564 -8.14613414492844 -8.935370606762111 -9.472800072154287 0 0 0
882 150 2 0.5564 -11.632216143002568 -4.82660886416892 -5.620314045154422 0 0 0
556 42 1 -1.1128 -8.358370773973538 -4.3367611224007145 -9.533646105986447 1 0 0
881 150 2 0.5564 11.161507795162608 -4.385320350592258 -5.546524025173463 -1 0 0
880 150 1 -1.1128 11.711586529850903 -5.160857144047055 -5.6569224507951335 -1 0 0
449 6 2 0.5564 -4.535963487681425 -10.768697969570136 -9.759881197423224 0 0 0
448 6 1 -1.1128 -5.244545338191836 -10.131864180778168 -9.852542524810055 0 0 0
450 6 2 0.5564 -5.964906908403553 -10.629045083729617 -10.239998388775579 0 0 0
463 11 1 -1.1128 -7.543145656656152 -9.726751699349315 -6.409189665134561 0 0 0
465 11 2 0.5564 -7.205346938043149 -10.615534990974203 -6.298790494579452 0 0 0
567 45 2 0.5564 -6.086857399407984 -5.868513109173048 -8.798402454796646 1 0 0
464 11 2 0.5564 -8.231465839922144 -9.811843814603046 -7.068891478474855 0 0 0
936 168 2 0.5564 -8.80443373797774 -7.344103522173301 -9.926691206362515 1 0 0
935 168 2 0.5564 -9.391611194556914 -5.960394466793705 -9.746509228644973 1 0 0
2379 0 3 1 -11.050331027460617 -7.987436442428885 -8.492931844466806 1 1 0
734 101 2 0.5564 -4.646888555995714 -7.382671334159074 -5.642359790086052 0 0 0
957 175 2 0.5564 -9.064817670643436 -4.907220236890628 -7.767318281300046 0 0 0
735 101 2 0.5564 -5.793557256628884 -8.159972523945331 -6.252972472917896 0 0 0
955 175 1 -1.1128 -9.172794279107167 -5.038289792373373 -6.825302864823161 0 0 0
956 175 2 0.5564 -9.442051140886235 -4.1818968729903085 -6.493154733518838 0 0 0
815 128 2 0.5564 -7.88156597907061 -9.805391044138124 -4.5770119763465935 0 1 0
452 7 2 0.5564 -9.804582019826336 -7.991920239934256 -5.648835964629784 0 0 0
934 168 1 -1.1128 -9.631464431382629 -6.886612119360221 -9.77518735580861 1 0 0
694 88 1 -1.1128 -6.566324622591333 -5.985252510318058 -6.983675444177542 0 0 0
767 112 2 0.5564 -11.721076274558841 -4.129551872581331 -9.351273127073195 1 0 0
1233 267 2 0.5564 -5.984841738240143 11.79931877190532 -6.251240002282739 0 0 0
1231 267 1 -1.1128 -6.750851447981705 11.980396315308017 -5.706564746671067 0 0 0
974 181 2 0.5564 -3.7766575688801947 11.585562313826538 -6.987267316547645 0 -1 0
973 181 1 -1.1128 -4.215694787100877 11.055594802082235 -6.321976102018212 0 -1 0
816 128 2 0.5564 -7.759180721715723 -10.566173256132231 -3.273889898580505 0 1 0
814 128 1 -1.1128 -8.236722174458595 -9.848026274032614 -3.689161707410583 0 1 0
807 125 2 0.5564 -10.867370396976424 -11.089896023703757 -7.466334178609675 0 1 0
733 101 1 -1.1128 -4.908659603862083 -8.265535086959371 -5.903624057535925 0 0 0
451 7 1 -1.1128 -10.430361862082979 -7.445386131365723 -6.124158597053239 0 0 0
453 7 2 0.5564 -9.940717592585221 -6.651537512021697 -6.339296992843294 0 0 0
558 42 2 0.5564 -7.402703782151671 -4.367161993762306 -9.578454296799944 1 0 0
1232 267 2 0.5564 -7.363211432107868 11.273697317451175 -5.911072191280568 0 0 0
527 32 2 0.5564 -3.9796992748182833 -4.59846291796541 -9.769792743496 0 0 0
483 17 2 0.5564 -10.73400367679166 -11.937428260738207 -9.530553052314325 1 0 0
157 0 5 0 -11.637679222558955 -10.477641401913571 -11.95329981547326 0 0 0
169 0 5 0 -11.587394949357108 -6.470834601386419 -11.901357766205743 0 0 0
805 125 1 -1.1128 -11.363117882853452 -11.580373740277265 -6.810668407598895 0 1 0
170 0 5 0 -9.63299089036143 -4.334647119909602 -11.989665329235496 0 0 0
172 0 5 0 -5.545253786865628 -4.449410376585207 -11.922979967021107 0 0 0
696 88 2 0.5564 -7.5094449640742535 -5.860979593845763 -6.8773205627526455 0 0 0
592 54 1 -1.1128 -10.947676460982935 -5.280808899499978 -3.2169672566262064 0 0 0
594 54 2 0.5564 -11.029831164391933 -6.062957005760808 -3.76261063644259 0 0 0
975 181 2 0.5564 -4.0043644649478205 11.486638583308228 -5.493862394076892 0 -1 0
173 0 5 0 -3.5988217097623396 -6.448410827718436 -11.924141273344963 0 0 0
161 0 5 0 -3.578683329336513 -10.458961158550755 -12.115293124724415 0 0 0
526 32 1 -1.1128 -3.5698737692111635 -3.7923820952301184 -9.455932038758073 0 0 0
609 59 2 0.5564 -2.2593108204806795 -9.505870450400927 -9.227526331376097 0 0 0
608 59 2 0.5564 -3.123282205629857 -8.522129888831042 -9.987592870518432 0 0 0
607 59 1 -1.1128 -2.6090100256871276 -8.61581665624207 -9.185734407767624 0 0 0
162 0 5 0 -1.473018489663004 -8.45821535882082 -11.971273671409499 0 0 0
164 0 5 0 2.508440761791021 -8.545543269406636 -11.975755130280588 0 0 0
175 0 5 0 0.6090592480866669 -6.466655796116585 -11.93978928689169 0 0 0
554 41 2 0.5564 -0.8252220464305723 -8.158837861620924 -9.259492169773873 0 0 0
553 41 1 -1.1128 0.13072132554453905 -8.12404482218589 -9.294039834016516 0 0 0
555 41 2 0.5564 0.33067963652602483 -7.208307926204336 -9.488138396374985 0 0 0
2386 0 3 1 1.5162403360630823 -9.36134781094837 -8.023231842661572 0 0 0
862 144 1 -1.1128 3.819575339408355 -8.88308740789746 -9.337968028152464 0 1 0
985 185 1 -1.1128 2.4318844017233663 -7.314785528615685 -6.664660683796447 0 0 0
986 185 2 0.5564 1.6636257372752716 -6.757972200846292 -6.538290691867615 0 0 0
987 185 2 0.5564 3.1613943374536158 -6.798649645229558 -6.321658027035475 0 0 0
2102 557 2 0.5564 -0.1113812028495184 -8.278814488700979 -6.223736284131557 0 1 0
2103 557 2 0.5564 -0.9151748986640125 -9.535219596541387 -6.483075451587288 0 1 0
2101 557 1 -1.1128 -0.016816878684281375 -9.212717325948692 -6.411125759880488 0 1 0
541 37 1 -1.1128 3.1824918599679375 -10.807954064416995 -6.932010845381644 0 0 0
469 13 1 -1.1128 -2.5035529564498358 -6.07745569950348 -7.683925340760581 0 0 0
1312 294 1 -1.1128 0.9693549472545705 -11.247216686730908 -9.311167425877205 0 0 0
543 37 2 0.5564 2.8485651817816637 -11.566068696682585 -6.452441447331898 0 0 0
864 144 2 0.5564 3.2666333132912286 -8.881285801274542 -10.119302580100278 0 1 0
1060 210 1 -1.1128 2.3153431695517033 -6.088623593392888 -9.240763624725531 0 0 0
1062 210 2 0.5564 1.9292719896418704 -5.213899058257439 -9.195621714446622 0 0 0
1061 210 2 0.5564 2.283019758009844 -6.411969561644301 -8.340411365517474 0 0 0
863 144 2 0.5564 4.396979487010433 -9.63760517915778 -9.45432609816407 0 1 0
1403 324 2 0.5564 -3.055663481907086 -10.18771580075063 -7.377777828564539 0 0 0
1402 324 1 -1.1128 -2.875457572751579 -10.003562080103412 -6.4559074964521175 0 0 0
1404 324 2 0.5564 -3.5363645936731225 -9.357602931511734 -6.206567362397846 0 0 0
542 37 2 0.5564 3.7755528488849723 -11.179332921690433 -7.585147934712794 0 0 0
471 13 2 0.5564 -3.0470890931485517 -6.778758392969763 -8.043055617968417 0 0 0
616 62 1 -1.1128 2.9660710994175883 -4.73529188494828 -2.757177485268497 0 0 0
470 13 2 0.5564 -2.6673797009174707 -5.329064989208941 -8.257775457759752 0 0 0
174 0 5 0 -1.5426906722749116 -4.454454138338811 -11.874583348163338 0 0 0
176 0 5 0 2.5309146055358682 -4.4282857387768955 -12.004806256505184 0 0 0
617 62 2 0.5564 3.429662616541789 -5.484926934573077 -3.130489257172675 0 0 0
618 62 2 0.5564 3.4627768567609984 -3.97326166762563 -3.055211877270023 0 0 0
2069 546 2 0.5564 -0.9912934778976283 -6.298652822123957 -6.472471954484806 0 0 0
2070 546 2 0.5564 -0.33599032586665284 -6.4278254595189255 -5.113874826619521 0 0 0
692 87 2 0.5564 -1.9530565418083146 -2.950672137600436 -9.717931063617089 0 0 0
2068 546 1 -1.1128 -0.15714424984899195 -6.505512751446094 -6.051003316848725 0 0 0
2399 0 4 -1 -2.3644549819385463 -11.644190616812388 -9.045162068157914 0 0 0
1314 294 2 0.5564 0.014724079626387354 -11.251352561979923 -9.381128672303342 0 0 0
1313 294 2 0.5564 1.1976268214240697 12.090106791562416 -9.08913391225946 0 -1 0
1338 302 2 0.5564 0.5937606005142647 -10.931032550263641 -5.069700247461351 0 0 0
705 91 2 0.5564 -3.0447316275166574 -5.882168328333513 -5.8464079345390605 0 0 0
178 0 5 0 6.584001779388231 -4.470553862691299 -11.82150842425638 0 0 0
831 133 2 0.5564 4.854207902100824 -7.561602045268289 -8.563398345740007 0 1 0
1212 260 2 0.5564 3.83544806315957 -5.156536574169852 -9.396308033110115 0 0 0
1210 260 1 -1.1128 4.568422704939436 -4.597894281774127 -9.65495481428377 0 0 0
1211 260 2 0.5564 4.794248163389969 -4.891619636216996 -10.537541722386786 0 0 0
177 0 5 0 4.5219399023081905 -6.513796507719197 -11.976202511618618 0 0 0
165 0 5 0 4.558964536230511 -10.497879256094189 -11.987126615619038 0 0 0
627 65 2 0.5564 4.33523902444763 -10.641531652984733 -5.6475238713008125 0 0 0
625 65 1 -1.1128 5.013485437182392 -10.28393077790859 -5.074519074982811 0 0 0
829 133 1 -1.1128 5.439081537586512 -6.987097335086787 -8.069335566300168 0 1 0
830 133 2 0.5564 5.582257887814203 -6.236850039660107 -8.646276635392706 0 1 0
806 125 2 0.5564 -11.88747007499178 -10.917701051340023 -6.361056255831354 0 1 0
626 65 2 0.5564 5.568528231868204 -9.76356209833229 -5.655359555016552 0 0 0
595 55 1 -1.1128 11.789626305553991 -6.085888832508639 -8.265993045485647 -1 0 0
596 55 2 0.5564 10.860454632662082 -6.302409752692539 -8.34338851736087 -1 0 0
597 55 2 0.5564 11.892939623761777 -5.791806739131609 -7.36096613757556 -1 0 0
168 0 5 0 10.668889527755827 -8.462804667743944 -11.924119128328531 0 0 0
166 0 5 0 6.5213603623492125 -8.51023128343683 -11.962050524302054 0 0 0
179 0 5 0 8.655200887213464 -6.464541251276663 -11.833306627582823 0 0 0
498 22 2 0.5564 10.895150040381367 -9.71760838965384 -8.849590847013793 0 0 0
497 22 2 0.5564 11.160299023457824 -8.912342891656122 -10.103839084901177 0 0 0
167 0 5 0 8.602585631346273 -10.541401048304767 -11.87324312430156 0 0 0
496 22 1 -1.1128 11.034601894678989 -8.822654816378677 -9.159176188805759 0 0 0
493 21 1 -1.1128 8.969053058271266 -7.327368477039523 -8.254908077506961 0 0 0
494 21 2 0.5564 8.456784739098442 -7.954119906000911 -7.744031283248004 0 0 0
495 21 2 0.5564 9.703410189622081 -7.838420625868373 -8.59516806634402 0 0 0
644 71 2 0.5564 11.418871654333236 -8.56461881927096 -5.3857648394133095 0 0 0
643 71 1 -1.1128 11.131159626157626 -9.372286984429643 -5.811352884594825 0 0 0
645 71 2 0.5564 10.454106950389562 -9.721050371026795 -5.2315303983139385 0 0 0
433 1 1 -1.1128 10.808688981980655 -11.626962493455869 -8.587507512182427 -1 0 0
688 86 1 -1.1128 6.928244227699697 -8.624081642435158 -6.378710997995119 0 0 0
689 86 2 0.5564 6.5135048471114425 -8.142774971887848 -7.094648774481773 0 0 0
690 86 2 0.5564 7.161521560601565 -7.950342202489741 -5.7400495261307505 0 0 0
1350 306 2 0.5564 5.98378335660931 -2.545458677237788 -4.397298358734264 0 0 0
434 1 2 0.5564 11.585026094518033 -11.587920830267487 -8.028930830542102 -1 0 0
701 90 2 0.5564 8.577177795407454 -5.6649629111743245 -7.6221845507230475 0 0 0
702 90 2 0.5564 9.106372899806555 -4.800287793361152 -6.497825412406834 0 0 0
700 90 1 -1.1128 8.491102165696299 -4.7955643725476165 -7.231072378692225 0 0 0
1370 313 2 0.5564 8.56710466260767 -11.332240288973216 -8.71621991554156 -1 0 0
648 72 2 0.5564 7.297116889712094 -3.1557036615429226 -6.5321696934359785 0 0 0
571 47 1 -1.1128 7.8234398619483345 -6.7242668714727625 -4.585534677124287 0 0 0
1071 213 2 0.5564 6.5547511574396164 -11.569594003060459 -4.692603804950539 0 0 0
572 47 2 0.5564 7.849955206430701 -5.780965060124418 -4.425190057829065 0 0 0
1348 306 1 -1.1128 5.703538042524289 -2.927562848574203 -3.565619018882381 0 0 0
486 18 2 0.5564 4.240566620758787 -4.725597244182199 -6.094587735891012 0 0 0
484 18 1 -1.1128 4.600676843538053 -5.528076312069411 -5.7169912577087025 0 0 0
485 18 2 0.5564 5.221413602633273 -5.844594911419346 -6.373293728476853 0 0 0
180 0 5 0 10.602585098369376 -4.409240861880281 -11.903099408125717 0 0 0
1044 204 2 0.5564 4.864581068823454 -2.258779082079583 -8.714607371046855 0 0 0
1069 213 1 -1.1128 7.084725968459057 -11.947048078147716 -3.990544787138042 0 0 0
1070 213 2 0.5564 6.796691756532874 11.381759789741274 -3.935800744508857 0 -1 0
573 47 2 0.5564 7.771893000760549 -7.114643256374965 -3.713078010863565 0 0 0
557 42 2 0.5564 -8.560882039338866 -3.419770764080046 -9.348311436145414 1 0 0
515 28 2 0.5564 -9.295427899127827 -2.2245303792930446 -2.449063251730113 0 0 0
537 35 2 0.5564 -7.244083632988869 -3.154085230895356 -5.436167496959906 0 0 0
513 27 2 0.5564 -5.297797122991864 -2.491713725796325 -7.333869011377359 0 0 0
182 0 5 0 -9.572207817296086 -0.35258461196245205 -11.947701455572638 0 0 0
195 0 5 0 -7.52297020353339 1.6128895367888556 -11.835162884917088 0 0 0
183 0 5 0 -7.613845541092501 -2.420707710540213 -11.944708074173011 0 0 0
535 35 1 -1.1128 -7.767505872831312 -2.3530597290175983 -5.411285560777711 0 0 0
511 27 1 -1.1128 -5.693424989363514 -2.882543454879463 -8.112947012312128 0 0 0
184 0 5 0 -5.556009681759876 -0.3936725596505893 -11.915857054896376 0 0 0
1093 221 1 -1.1128 -6.808827011724678 0.12385157707986849 -9.03162516555496 0 0 0
1094 221 2 0.5564 -6.907541411485046 0.5047766461995258 -9.904197776501508 0 0 0
2387 0 3 1 -8.086152203053954 2.0123815361046558 -7.702493504128116 1 0 0
1095 221 2 0.5564 -7.552883697996164 -0.47195323015742596 -8.944287791381631 0 0 0
942 170 2 0.5564 -4.997308994871759 0.8676165457305811 -8.826374357506303 0 0 0
940 170 1 -1.1128 -4.438145533755895 1.3350025717914837 -8.205795745334731 0 0 0
941 170 2 0.5564 -5.035991755192963 1.914127347212642 -7.733116002571813 0 0 0
512 27 2 0.5564 -6.281836234754357 -2.2061360117589723 -8.448322924781658 0 0 0
2397 0 4 -1 -9.194903818885571 -1.534737672968445 -8.708345584642872 1 0 0
715 95 1 -1.1128 -8.822883296529625 0.800978607650842 -5.831721869576861 1 0 0
585 51 2 0.5564 -10.007669509163076 0.7909977993529337 -9.145833378848724 0 0 0
716 95 2 0.5564 -9.308897700593771 -0.007369535207942417 -5.994801310306068 1 0 0
717 95 2 0.5564 -8.650120939137633 0.7913577181987564 -4.890291008149212 1 0 0
833 134 2 0.5564 -10.359920822843458 -2.4031138962546112 -6.987493677383563 1 0 0
832 134 1 -1.1128 -10.866657389575632 -2.7118143746934837 -6.236392594468071 1 0 0
2393 0 4 -1 -6.253729670820575 2.9142614532402313 -6.297009719786887 0 0 0
834 134 2 0.5564 -11.77980389685031 -2.5953562435688347 -6.498752356497342 1 0 0
580 50 1 -1.1128 -7.403518945193791 3.4210184395262107 -9.434182619125362 0 0 0
536 35 2 0.5564 -7.8023306970570045 -2.0607465988180063 -6.3220936290097995 0 0 0
1101 223 2 0.5564 -4.5066831276131 -1.4271128022189414 -4.921140628092836 0 0 0
583 51 1 -1.1128 -9.60628617558199 1.6221502247152817 -9.399425352557483 0 0 0
768 112 2 0.5564 -10.997780773353766 -2.8001096731476136 -9.387630230303705 1 0 0
766 112 1 -1.1128 -11.873829996401891 -3.18571010321084 -9.396669120342132 1 0 0
584 51 2 0.5564 -10.345519462375456 2.2169328133680892 -9.52591476579405 0 0 0
181 0 5 0 -11.634729273891983 -2.3529160905200626 -11.981387822724566 0 0 0
193 0 5 0 -11.569375307096104 1.6183622069138814 -11.908494747997823 0 0 0
1379 316 2 0.5564 -5.957713969477155 1.6522658521661546 -4.714541667360027 0 0 0
1380 316 2 0.5564 -5.59432576382274 0.3259597858800158 -4.081488822900499 0 0 0
1099 223 1 -1.1128 -4.939750243259002 -1.4134857290366438 -4.067619116832368 0 0 0
1152 240 2 0.5564 -10.430352236181191 1.5078508541381206 -5.14508369079459 1 0 0
1150 240 1 -1.1128 -11.13597800924719 1.8115974228591998 -4.5740652557252375 1 0 0
194 0 5 0 -9.549129608673054 3.578659545214747 -11.93038966313312 0 0 0
196 0 5 0 -5.543045411969546 3.586073147876898 -11.942806985892261 0 0 0
516 28 2 0.5564 -8.282495746215305 -2.3716186528934053 -3.564513114663164 0 0 0
1218 262 2 0.5564 -7.472695431371551 3.5534468425423817 -4.346407918068584 1 0 0
1431 333 2 0.5564 11.202006841160987 -0.7442440939295373 -4.544346987228541 0 0 0
1100 223 2 0.5564 -5.400686312652829 -2.250984039293719 -4.01898261518854 0 0 0
1151 240 2 0.5564 -10.80068848881701 2.6206956296384676 -4.187836332937399 1 0 0
528 32 2 0.5564 -4.2754672469146575 -3.321207457323987 -9.012802297916922 0 0 0
740 103 2 0.5564 -3.863628769783435 3.0990936325952974 -9.266800071488758 0 0 0
491 20 2 0.5564 -4.136644385370641 -0.15677202921587974 -7.006727291113408 0 0 0
1032 200 2 0.5564 -1.8980514434271947 2.4575393737672235 -5.935134496054874 0 0 0
185 0 5 0 -3.543757896435888 -2.3837390828236074 -11.942243088087903 0 0 0
197 0 5 0 -3.547578799911733 1.573936158767233 -11.85265760638692 0 0 0
490 20 1 -1.1128 -3.7363602814865113 -0.8633383547475098 -6.500003991121922 0 0 0
1030 200 1 -1.1128 -2.796231209479611 2.7857875708008164 -5.977062613907336 0 0 0
1031 200 2 0.5564 -3.0658867635489915 2.6320967973952856 -6.8825438296377275 0 0 0
492 20 2 0.5564 -2.797971950974083 -0.6765043335365397 -6.527426462995499 0 0 0
693 87 2 0.5564 -0.4419368941270886 -2.994344217768159 -9.637277638768113 0 0 0
691 87 1 -1.1128 -1.1792831032577549 -2.3874192248544865 -9.702041530678635 0 0 0
199 0 5 0 0.5309807520208164 1.5633881016844045 -12.057048930632453 0 0 0
747 105 2 0.5564 0.37699306926939685 3.077945925503417 -10.294245441164703 0 0 0
746 105 2 0.5564 0.22449606719258217 1.986919042594663 -9.255833921837354 0 0 0
188 0 5 0 2.553392651262761 -0.4430733229933079 -11.949710680493334 0 0 0
186 0 5 0 -1.4508236960527525 -0.40624875990659476 -11.977203796100332 0 0 0
187 0 5 0 0.4992961366679345 -2.439540162969155 -11.948032500392944 0 0 0
673 81 1 -1.1128 4.4107303034565595 1.8748960574526576 -6.840355389375846 0 0 0
674 81 2 0.5564 4.988911537842343 1.845237507108868 -6.078083422706496 0 0 0
771 113 2 0.5564 1.5996042245336042 2.7517851774499045 -7.826548434262332 0 0 0
1391 320 2 0.5564 -0.26214647690080073 -0.5061054460907208 -7.278967029097239 0 0 0
769 113 1 -1.1128 1.8318146809054425 3.000980234953105 -6.932003036966298 0 0 0
745 105 1 -1.1128 0.6431199153499282 2.834226429498101 -9.40767418534352 0 0 0
685 85 1 -1.1128 -0.1250970938874253 0.139686622151725 -9.260766667145253 0 0 0
686 85 2 0.5564 0.7493436101453765 -0.17216562064570723 -9.02767165029763 0 0 0
687 85 2 0.5564 -0.6609855639828273 -0.6526612379443194 -9.29598177915272 0 0 0
1390 320 1 -1.1128 -0.7257682588608391 -0.6654211073882925 -6.4568327070061216 0 0 0
1392 320 2 0.5564 -0.510431895884224 -1.5704203028434751 -6.231358954698935 0 0 0
1582 384 1 -1.1128 1.6140680443286113 -3.4303337683021766 -9.181613381739437 0 0 0
1583 384 2 0.5564 2.2589570207854783 -3.1618823534540987 -9.836047270406299 0 0 0