ITEM: TIMESTEP
15800
ITEM: NUMBER OF ENTRIES
116
ITEM: BOX BOUNDS pp pp pp
-2.2399916446225905e+01 2.2399916446225905e+01
-1.1128071838990754e+01 1.1128071838990754e+01
-1.1128071838990754e+01 1.1128071838990754e+01
ITEM: ENTRIES index c_dphi
1 167.601 
2 -68.5538 
3 47.6478 
4 -123.245 
5 114.109 
6 -5.11421 
7 -118.791 
8 121.986 
9 3.85556 
10 -2.21764 
11 -121.441 
12 120.429 
13 77.2312 
14 -50.0038 
15 -166.718 
16 134.226 
17 26.1237 
18 -96.8083 
19 155.09 
20 17.027 
21 -91.075 
22 -152.732 
23 -161.605 
24 75.0339 
25 -35.9037 
26 -41.5113 
27 -164.872 
28 84.1905 
29 81.566 
30 -41.7946 
31 -90.8968 
32 153.456 
33 34.7398 
34 74.4035 
35 -48.294 
36 -169.036 
37 73.8015 
38 -46.9409 
39 -163.501 
40 -166.151 
41 73.1066 
42 -43.4535 
43 56.492 
44 -65.2415 
45 174.706 
46 176.493 
47 -59.8873 
48 59.3933 
49 -147.106 
50 -23.6944 
51 93.3151 
52 138.367 
53 19.4298 
54 -110.009 
55 -87.819 
56 39.0031 
57 153.825 
58 -107.965 
59 124.208 
60 9.02194 
61 -112.813 
62 132.001 
63 15.0138 
64 4.95041 
65 -110.236 
66 132.777 
67 151.408 
68 30.1456 
69 -92.2837 
70 99.7255 
71 -139.969 
72 -19.7109 
73 79.646 
74 -39.9337 
75 -155.556 
76 82.3144 
77 -33.3075 
78 -158.106 
79 -163.148 
80 81.2302 
81 -43.5682 
82 72.3256 
83 -55.8395 
84 -166.233 
85 177.964 
86 -73.9595 
87 -89.412 
88 147.578 
89 22.4358 
90 -125.752 
91 1.45961 
92 119.505 
93 -178.094 
94 61.1236 
95 -60.0119 
96 179.507 
97 58.3715 
98 -59.7106 
99 -58.8081 
100 -179.944 
101 61.9743 
102 129.354 
103 -106.621 
104 13.9939 
105 73.1119 
106 -53.9723 
107 -174.246 
108 68.9386 
109 -51.3354 
110 -163.977 
111 -174.187 
112 65.539 
113 -47.1028 
114 -164.83 
115 68.8467 
116 -44.6988 
ITEM: TIMESTEP
15850
ITEM: NUMBER OF ENTRIES
116
ITEM: BOX BOUNDS pp pp pp
-2.2399916446225905e+01 2.2399916446225905e+01
-1.1128071838990754e+01 1.1128071838990754e+01
-1.1128071838990754e+01 1.1128071838990754e+01
ITEM: ENTRIES index c_dphi
1 142.539 
2 -102.169 
3 18.9521 
4 -124.091 
5 118.532 
6 1.2651 
7 -121.863 
8 120.871 
9 -4.48504 
10 -5.39625 
11 -122.663 
12 111.981 
13 90.5783 
14 -26.4102 
15 -141.866 
16 134.343 
17 18.0831 
18 -111.538 
19 132.202 
20 9.19286 
21 -107.067 
22 -155.019 
23 -160.859 
24 82.0739 
25 -35.1087 
26 -41.208 
27 -158.275 
28 84.5427 
29 79.2307 
30 -37.8359 
31 -79.9337 
32 159.69 
33 40.5339 
34 53.353 
35 -65.6068 
36 174.735 
37 50.8843 
38 -68.7744 
39 169.844 
40 173.535 
41 53.8759 
42 -67.5057 
43 34.3845 
44 -86.7665 
45 155.755 
46 178.396 
47 -64.1588 
48 56.2978 
49 -151.384 
50 -25.9572 
51 88.2423 
52 152.793 
53 32.4033 
54 -89.5017 
55 -106.179 
56 15.8409 
57 133.493 
58 -96.0254 
59 143.049 
60 24.905 
61 -89.0971 
62 152.759 
63 31.8282 
64 22.2372 
65 -95.907 
66 143.163 
67 140.426 
68 17.1264 
69 -100.69 
70 98.3363 
71 -144.035 
72 -21.9193 
73 71.9475 
74 -47.6695 
75 -160.421 
76 84.492 
77 -28.2597 
78 -155.891 
79 -155.987 
80 91.261 
81 -36.3703 
82 70.393 
83 -60.4046 
84 -176.56 
85 179.375 
86 -63.4719 
87 -84.4851 
88 155.355 
89 42.7693 
90 -121.716 
91 3.8824 
92 116.368 
93 176.722 
94 51.7766 
95 -61.1742 
96 173.82 
97 60.8689 
98 -61.2348 
99 -65.8265 
100 -178.777 
101 59.119 
102 -174.313 
103 -51.6927 
104 68.2646 
105 86.7629 
106 -33.9809 
107 -154.787 
108 79.8135 
109 -40.9923 
110 -159.443 
111 -155.42 
112 83.7743 
113 -34.6761 
114 -165.169 
115 76.1214 
116 -45.2255 
ITEM: TIMESTEP
15900
ITEM: NUMBER OF ENTRIES
116
ITEM: BOX BOUNDS pp pp pp
-2.2399916446225905e+01 2.2399916446225905e+01
-1.1128071838990754e+01 1.1128071838990754e+01
-1.1128071838990754e+01 1.1128071838990754e+01
ITEM: ENTRIES index c_dphi
1 138.521 
2 -98.1052 
3 18.2933 
4 -131.157 
5 107.872 
6 -7.82643 
7 -127.164 
8 117.138 
9 -6.19318 
10 -5.00464 
11 -120.703 
12 115.966 
13 103.151 
14 -19.8869 
15 -142.799 
16 123.533 
17 8.89176 
18 -121.363 
19 123.996 
20 -1.88598 
21 -116.527 
22 -172.933 
23 -169.223 
24 74.6308 
25 -51.1645 
26 -51.1482 
27 -167.294 
28 66.9105 
29 69.0086 
30 -47.1375 
31 -57.3113 
32 178.456 
33 63.1088 
34 58.8806 
35 -63.1152 
36 -179.754 
37 56.5285 
38 -60.1099 
39 178.524 
40 176.865 
41 60.2263 
42 -61.1395 
43 14.4043 
44 -96.8519 
45 129.333 
46 165.717 
47 -73.8139 
48 43.7502 
49 -161.575 
50 -47.1769 
51 69.7405 
52 158.157 
53 36.4859 
54 -82.0654 
55 -90.1293 
56 30.8349 
57 148.059 
58 -97.145 
59 145.211 
60 23.655 
61 -91.0288 
62 147.415 
63 26.6155 
64 26.6218 
65 -94.9339 
66 144.266 
67 149.468 
68 30.164 
69 -94.0668 
70 86.4693 
71 -153.2 
72 -39.0135 
73 69.244 
74 -48.4522 
75 -166.823 
76 81.246 
77 -37.1244 
78 -161.058 
79 -165.002 
80 76.6276 
81 -47.3058 
82 75.2088 
83 -49.0922 
84 -165.694 
85 -162.435 
86 -43.3851 
87 -83.3408 
88 162.675 
89 37.5681 
90 -147.854 
91 -31.8196 
92 94.6548 
93 162.051 
94 45.7393 
95 -69.1414 
96 175.32 
97 60.4397 
98 -68.3684 
99 -69.2634 
100 175.856 
101 47.0479 
102 -175.989 
103 -52.804 
104 67.4317 
105 85.5839 
106 -39.8247 
107 -157.595 
108 81.6656 
109 -36.1049 
110 -152.926 
111 -164.169 
112 78.0605 
113 -38.7603 
114 -154.663 
115 81.9864 
116 -30.4522 
ITEM: TIMESTEP
15950
ITEM: NUMBER OF ENTRIES
116
ITEM: BOX BOUNDS pp pp pp
-2.2399916446225905e+01 2.2399916446225905e+01
-1.1128071838990754e+01 1.1128071838990754e+01
-1.1128071838990754e+01 1.1128071838990754e+01
ITEM: ENTRIES index c_dphi
1 116.613 
2 -127.343 
3 -6.0032 
4 -133.916 
5 111.262 
6 -7.90565 
7 -124.137 
8 116.695 
9 -9.31503 
10 -9.31971 
11 -128.487 
12 105.502 
13 128.974 
14 6.46894 
15 -107.616 
16 116.545 
17 7.05217 
18 -132.324 
19 118.183 
20 -11.2291 
21 -120.722 
22 168.341 
23 172.882 
24 59.8163 
25 -71.0175 
26 -67.5407 
27 179.393 
28 48.5595 
29 52.2411 
30 -60.825 
31 -102.283 
32 133.311 
33 16.3241 
34 82.8571 
35 -36.4836 
36 -157.585 
37 83.5764 
38 -37.5245 
39 -157.083 
40 -154.351 
41 84.5484 
42 -35.0099 
43 91.8942 
44 -28.657 
45 -148.451 
46 -173.717 
47 -55.2443 
48 64.153 
49 -161.407 
50 -44.94 
51 76.9352 
52 163.898 
53 40.6367 
54 -84.1424 
55 -76.1553 
56 44.2288 
57 162.023 
58 -85.6535 
59 149.965 
60 36.2872 
61 -89.2031 
62 157.119 
63 35.1785 
64 37.0529 
65 -76.6247 
66 161.435 
67 150.365 
68 29.3515 
69 -88.5989 
70 83.1558 
71 -155.88 
72 -43.6777 
73 72.4054 
74 -40.7077 
75 -161.144 
76 78.0007 
77 -42.436 
78 -168.886 
79 -164.476 
80 75.0874 
81 -51.3628 
82 79.4488 
83 -39.4603 
84 -155.661 
85 -168.167 
86 -59.4828 
87 -73.4188 
88 170.227 
89 57.3488 
90 -129.544 
91 -14.0763 
92 100.169 
93 154.861 
94 37.3384 
95 -84.0092 
96 167.221 
97 45.8736 
98 -75.2563 
99 -67.5563 
100 171.096 
101 49.9662 
102 115.258 
103 -118.72 
104 -0.743181 
105 66.1081 
106 -61.1767 
107 -176.833 
108 58.933 
109 -56.7233 
110 -173.782 
111 177.886 
112 62.2296 
113 -54.8293 
114 -150.297 
115 88.2217 
116 -32.0261 
ITEM: TIMESTEP
16000
ITEM: NUMBER OF ENTRIES
116
ITEM: BOX BOUNDS pp pp pp
-2.2399916446225905e+01 2.2399916446225905e+01
-1.1128071838990754e+01 1.1128071838990754e+01
-1.1128071838990754e+01 1.1128071838990754e+01
ITEM: ENTRIES index c_dphi
1 111.767 
2 -131.051 
3 -9.34808 
4 -149.317 
5 91.0064 
6 -24.9325 
7 -146.719 
8 97.3424 
9 -27.0417 
10 -25.458 
11 -141.397 
12 94.2189 
13 147.929 
14 27.2833 
15 -96.1174 
16 115.96 
17 -2.19559 
18 -124.953 
19 116.891 
20 -2.21573 
21 -120.371 
22 150.631 
23 155.104 
24 41.8905 
25 -86.3365 
26 -88.1182 
27 158.669 
28 30.4415 
29 32.0712 
30 -81.1422 
31 -132.536 
32 104.897 
33 -14.6201 
34 94.926 
35 -23.969 
36 -144.547 
37 91.2946 
38 -29.2829 
39 -149.81 
40 -148.391 
41 91.0313 
42 -29.4962 
43 46.9024 
44 -72.5792 
45 170.756 
46 171.764 
47 -69.7435 
48 49.3339 
49 -144.249 
50 -22.3221 
51 98.0355 
52 167.579 
53 43.7329 
54 -70.3366 
55 -78.0148 
56 39.3855 
57 165.115 
58 -74.2877 
59 166.752 
60 41.4066 
61 -69.8253 
62 164.83 
63 49.1355 
64 50.1541 
65 -75.1907 
66 169.115 
67 146.012 
68 19.1924 
69 -95.9827 
70 82.1584 
71 -162.37 
72 -39.9181 
73 80.2777 
74 -31.9566 
75 -158.341 
76 91.9023 
77 -34.4819 
78 -155.863 
79 -151.02 
80 82.5956 
81 -38.7859 
82 62.835 
83 -55.9862 
84 179.567 
85 -153.472 
86 -34.7314 
87 -67.5673 
88 171.469 
89 52.3679 
90 -120.117 
91 -8.33843 
92 116.581 
93 162.808 
94 40.7153 
95 -80.0256 
96 162.706 
97 41.9655 
98 -75.2008 
99 -82.1488 
100 157.11 
101 39.9439 
102 93.5177 
103 -146.701 
104 -26.5852 
105 53.1833 
106 -66.0271 
107 175.571 
108 54.6846 
109 -63.7174 
110 173.895 
111 177.911 
112 59.509 
113 -62.8787 
114 -160.293 
115 76.7404 
116 -43.8672 
ITEM: TIMESTEP
16050
ITEM: NUMBER OF ENTRIES
116
ITEM: BOX BOUNDS pp pp pp
-2.2399916446225905e+01 2.2399916446225905e+01
-1.1128071838990754e+01 1.1128071838990754e+01
-1.1128071838990754e+01 1.1128071838990754e+01
ITEM: ENTRIES index c_dphi
1 110.836 
2 -129.202 
3 -17.1356 
4 -143.487 
5 100.614 
6 -19.7239 
7 -133.127 
8 106.535 
9 -17.2273 
10 -16.9204 
11 -137.258 
12 98.9793 
13 141.595 
14 19.0072 
15 -101.056 
16 -130.603 
17 -14.9815 
18 104.026 
19 111.262 
20 -4.7342 
21 -122.922 
22 121.082 
23 -13.2589 
24 -129.255 
25 -71.6507 
26 164.109 
27 50.0695 
28 118.237 
29 -6.17428 
30 -122.314 
31 115.969 
32 -0.170938 
33 -119.62 
34 -129.275 
35 114.585 
36 -4.86372 
37 74.4708 
38 -40.075 
39 -162.136 
40 -170.033 
41 -47.1773 
42 70.7788 
43 133.597 
44 137.824 
45 15.1939 
46 -106.743 
47 -102.736 
48 134.634 
49 12.6973 
50 18.1644 
51 -104.466 
52 -143.04 
53 94.8426 
54 -20.47 
55 169.45 
56 52.8632 
57 -72.9624 
58 -95.5485 
59 22.7776 
60 137.816 
61 -54.9105 
62 -178.057 
63 71.136 
64 -54.9749 
65 -165.782 
66 68.1713 
67 68.2901 
68 -42.5173 
69 -168.564 
70 138.951 
71 18.8551 
72 -103.749 
73 76.4807 
74 -152.295 
75 -44.3966 
76 68.3432 
77 -63.1053 
78 -174.449 
79 50.2066 
80 -61.1372 
81 -178.345 
82 164.197 
83 52.8527 
84 -64.3549 
85 71.1156 
86 -49.011 
87 -156.771 
88 -156.418 
89 -40.8357 
90 168.165 
91 45.67 
92 -76.8293 
93 158.615 
94 36.1153 
95 -78.8904 
96 -78.0655 
97 159.435 
98 44.4295 
99 -150.025 
100 -28.284 
101 94.4249 
102 137.556 
103 -101.636 
104 12.4228 
105 92.1197 
106 -30.9455 
107 -149.284 
108 85.5265 
109 -32.812 
110 -151.408 
111 -157.694 
112 83.9677 
113 -34.6285 
114 -161.893 
115 82.1583 
116 -38.0821 
ITEM: TIMESTEP
16100
ITEM: NUMBER OF ENTRIES
116
ITEM: BOX BOUNDS pp pp pp
-2.2399916446225905e+01 2.2399916446225905e+01
-1.1128071838990754e+01 1.1128071838990754e+01
-1.1128071838990754e+01 1.1128071838990754e+01
ITEM: ENTRIES index c_dphi
1 129.619 
2 -116.443 
3 8.02263 
4 -118.151 
5 125.784 
6 3.11696 
7 -113.159 
8 124.174 
9 2.90597 
10 6.52784 
11 -116.139 
12 122.593 
13 144.691 
14 26.396 
15 -96.3247 
16 -146.107 
17 -22.4943 
18 99.2229 
19 120.359 
20 10.3072 
21 -118.65 
22 131.298 
23 2.30884 
24 -107.743 
25 -99.6206 
26 141.624 
27 20.0189 
28 129.058 
29 8.45733 
30 -109.229 
31 127.733 
32 10.0466 
33 -111.667 
34 -119.571 
35 122.742 
36 1.02929 
37 51.4104 
38 -71.7272 
39 -179.429 
40 -162.162 
41 -43.5973 
42 77.7658 
43 122.458 
44 114.53 
45 -9.62129 
46 -121.864 
47 -119.208 
48 116.641 
49 4.39807 
50 -1.14861 
51 -125.3 
52 -146.215 
53 98.5226 
54 -25.8225 
55 173.887 
56 55.2687 
57 -62.8289 
58 -92.2112 
59 36.0654 
60 152.54 
61 -64.4183 
62 172.526 
63 46.6576 
64 -65.34 
65 168.792 
66 57.7162 
67 44.994 
68 -80.8739 
69 168.05 
70 134.3 
71 15.8406 
72 -104.522 
73 84.6348 
74 -159.322 
75 -30.0686 
76 58.7602 
77 -66.5282 
78 178.247 
79 51.4601 
80 -63.7649 
81 176.749 
82 170.897 
83 55.6725 
84 -63.8142 
85 80.7329 
86 -36.6158 
87 -159.721 
88 -168.55 
89 -58.2969 
90 170.499 
91 45.0155 
92 -71.5954 
93 160.664 
94 44.0528 
95 -73.8532 
96 -82.0844 
97 161.305 
98 43.3987 
99 -153.176 
100 -26.7008 
101 88.1494 
102 -137.058 
103 -5.91904 
104 104.451 
105 118.422 
106 -6.96919 
107 -120.209 
108 114.794 
109 1.55411 
110 -119.815 
111 -125.581 
112 121.18 
113 -0.189375 
114 -159.622 
115 79.1698 
116 -42.1952 
ITEM: TIMESTEP
16150
ITEM: NUMBER OF ENTRIES
116
ITEM: BOX BOUNDS pp pp pp
-2.2399916446225905e+01 2.2399916446225905e+01
-1.1128071838990754e+01 1.1128071838990754e+01
-1.1128071838990754e+01 1.1128071838990754e+01
ITEM: ENTRIES index c_dphi
1 123.254 
2 -120.747 
3 -1.94045 
4 -110.355 
5 131.819 
6 17.5145 
7 -104.457 
8 141.239 
9 13.3691 
10 14.31 
11 -99.9948 
12 132.136 
13 143.658 
14 20.3804 
15 -96.3254 
16 -148.925 
17 -14.9775 
18 99.199 
19 131.426 
20 10.7294 
21 -112.2 
22 127.103 
23 4.19696 
24 -116.5 
25 -111.48 
26 131.149 
27 10.1855 
28 155.38 
29 36.0699 
30 -86.5786 
31 157.616 
32 34.9672 
33 -83.0737 
34 -90.4168 
35 146.935 
36 28.8937 
37 64.2582 
38 -57.9994 
39 -170.008 
40 -167.064 
41 -45.0667 
42 73.5768 
43 106.425 
44 92.3244 
45 -18.1128 
46 -128.395 
47 -153.448 
48 96.1144 
49 -14.1676 
50 -32.8557 
51 -143.293 
52 -154.498 
53 80.8483 
54 -36.2936 
55 176.635 
56 63.3437 
57 -56.2656 
58 -78.4857 
59 41.6526 
60 161.034 
61 -72.9533 
62 164.143 
63 51.1737 
64 -75.3132 
65 171.718 
66 47.5908 
67 38.0213 
68 -74.9478 
69 160.925 
70 133.302 
71 16.8477 
72 -109.068 
73 99.433 
74 -140.226 
75 -26.6677 
76 43.9812 
77 -76.61 
78 172.338 
79 44.2666 
80 -66.7858 
81 164.858 
82 163.819 
83 52.767 
84 -75.5894 
85 75.4373 
86 -47.0813 
87 -161.689 
88 -165.072 
89 -46.062 
90 169.454 
91 50.6121 
92 -70.3134 
93 166.981 
94 46.0554 
95 -74.1768 
96 -76.0362 
97 163.038 
98 42.8061 
99 -161.811 
100 -44.8888 
101 78.2121 
102 133.284 
103 -97.6049 
104 10.6691 
105 127.751 
106 -3.67547 
107 -109.54 
108 112.701 
109 6.83628 
110 -115.872 
111 -131.362 
112 122.773 
113 0.0644273 
114 -165.911 
115 76.8254 
116 -40.1304 
ITEM: TIMESTEP
16200
ITEM: NUMBER OF ENTRIES
116
ITEM: BOX BOUNDS pp pp pp
-2.2399916446225905e+01 2.2399916446225905e+01
-1.1128071838990754e+01 1.1128071838990754e+01
-1.1128071838990754e+01 1.1128071838990754e+01
ITEM: ENTRIES index c_dphi
1 130.572 
2 -108.464 
3 11.9172 
4 -86.6437 
5 156.103 
6 37.0844 
7 -84.119 
8 156.863 
9 33.1346 
10 33.6043 
11 -85.4141 
12 150.858 
13 140.823 
14 23.2991 
15 -96.3054 
16 -164.249 
17 -43.6788 
18 79.5721 
19 127.169 
20 13.9564 
21 -116.665 
22 130.123 
23 3.32331 
24 -109.889 
25 -138.736 
26 100.99 
27 -17.2098 
28 170.689 
29 42.5319 
30 -74.809 
31 171.367 
32 54.0263 
33 -60.4753 
34 -77.3004 
35 165.359 
36 50.8571 
37 50.0039 
38 -74.576 
39 172.358 
40 -151.617 
41 -25.2219 
42 91.7887 
43 102.478 
44 94.9113 
45 -27.5471 
46 -141.405 
47 -139.788 
48 97.7531 
49 -16.1046 
50 -21.2063 
51 -143.665 
52 -153.027 
53 91.3581 
54 -30.9002 
55 168.261 
56 55.9401 
57 -76.8229 
58 -71.3401 
59 45.8598 
60 163.765 
61 -88.5131 
62 152.527 
63 33.7458 
64 -88.3003 
65 152.919 
66 30.6598 
67 33.893 
68 -84.888 
69 152.853 
70 135.988 
71 11.0242 
72 -102.468 
73 107.399 
74 -134.327 
75 -14.8623 
76 55.0286 
77 -56.9901 
78 -179.281 
79 76.5321 
80 -45.7587 
81 -171.449 
82 -163.409 
83 74.3 
84 -51.3905 
85 60.036 
86 -71.5184 
87 170.057 
88 -155.185 
89 -37.8981 
90 170.134 
91 50.2499 
92 -65.4351 
93 172.508 
94 56.8229 
95 -67.6085 
96 -67.1818 
97 177.133 
98 52.7018 
99 -160.859 
100 -39.5894 
101 75.1709 
102 92.5298 
103 -144.644 
104 -23.0929 
105 143.59 
106 21.0108 
107 -100.461 
108 144.649 
109 23.1779 
110 -92.7717 
111 -97.2327 
112 141.296 
113 25.3462 
114 -165.686 
115 71.3792 
116 -45.9371 
ITEM: TIMESTEP
16250
ITEM: NUMBER OF ENTRIES
116
ITEM: BOX BOUNDS pp pp pp
-2.2399916446225905e+01 2.2399916446225905e+01
-1.1128071838990754e+01 1.1128071838990754e+01
-1.1128071838990754e+01 1.1128071838990754e+01
ITEM: ENTRIES index c_dphi
1 110.604 
2 -132.989 
3 -7.84509 
4 -74.2617 
5 168.134 
6 48.7769 
7 -68.9219 
8 171.721 
9 48.6826 
10 50.5681 
11 -68.7888 
12 168.173 
13 140.445 
14 20.3145 
15 -99.1991 
16 -160.614 
17 -41.8713 
18 83.2381 
19 144.746 
20 32.5649 
21 -94.1679 
22 153.651 
23 23.3379 
24 -88.8431 
25 -152.532 
26 84.887 
27 -31.968 
28 -179.688 
29 59.1541 
30 -59.2423 
31 176.974 
32 58.5779 
33 -61.8682 
34 -66.0812 
35 175.522 
36 55.0763 
37 40.951 
38 -81.722 
39 166.717 
40 -144.824 
41 -30.4152 
42 94.7499 
43 107.115 
44 112.486 
45 -6.66792 
46 -127.257 
47 -133.351 
48 107.495 
49 -13.0934 
50 -13.1427 
51 -132.296 
52 -150.705 
53 82.4161 
54 -32.5138 
55 154.184 
56 33.5651 
57 -87.673 
58 -84.0009 
59 37.0625 
60 158.254 
61 -85.5063 
62 150.996 
63 32.411 
64 -81.5502 
65 159.865 
66 41.948 
67 35.1132 
68 -83.4714 
69 158.611 
70 147.187 
71 25.1406 
72 -98.2148 
73 120.623 
74 -119.812 
75 -4.92834 
76 38.4821 
77 -76.2799 
78 166.834 
79 52.3575 
80 -64.529 
81 167.119 
82 170.691 
83 53.8047 
84 -74.5468 
85 80.7894 
86 -45.5105 
87 -158.725 
88 -166.712 
89 -55.5306 
90 175.528 
91 58.5066 
92 -62.0227 
93 -177.216 
94 62.2544 
95 -60.1951 
96 -56.6831 
97 -177.212 
98 60.338 
99 -152.222 
100 -35.4825 
101 85.9891 
102 -171.264 
103 -48.3897 
104 69.9171 
105 153.606 
106 36.9539 
107 -88.4077 
108 150.143 
109 24.7816 
110 -93.2051 
111 -85.6167 
112 149.022 
113 31.035 
114 -153.999 
115 88.2745 
116 -31.5304 
ITEM: TIMESTEP
16300
ITEM: NUMBER OF ENTRIES
116
ITEM: BOX BOUNDS pp pp pp
-2.2399916446225905e+01 2.2399916446225905e+01
-1.1128071838990754e+01 1.1128071838990754e+01
-1.1128071838990754e+01 1.1128071838990754e+01
ITEM: ENTRIES index c_dphi
1 101.335 
2 -134.132 
3 -23.2429 
4 -85.8865 
5 156.421 
6 35.6214 
7 -82.7651 
8 156.436 
9 34.9277 
10 37.3407 
11 -83.4586 
12 155.033 
13 129.715 
14 11.1419 
15 -110.295 
16 -153.704 
17 -39.6356 
18 74.7041 
19 154.448 
20 41.1141 
21 -83.9205 
22 162.746 
23 32.699 
24 -80.6347 
25 -149.986 
26 93.1997 
27 -35.4894 
28 168.908 
29 50.1135 
30 -66.3316 
31 168.226 
32 51.781 
33 -72.9794 
34 -68.9284 
35 174.626 
36 49.8661 
37 85.4936 
38 -35.8613 
39 -150.294 
40 -140.323 
41 -25.4725 
42 91.8534 
43 111.197 
44 113.448 
45 -3.2991 
46 -132.557 
47 -123.354 
48 119.899 
49 -9.35919 
50 -2.79806 
51 -119.545 
52 -148.819 
53 94.5838 
54 -26.2363 
55 140.455 
56 8.85985 
57 -101.048 
58 -89.1646 
59 38.8101 
60 151.987 
61 -86.9874 
62 147.792 
63 30.7139 
64 -85.3429 
65 157.579 
66 39.8773 
67 27.9451 
68 -89.1335 
69 153.165 
70 152.844 
71 30.2839 
72 -87.0164 
73 124.314 
74 -112.864 
75 8.16533 
76 54.3493 
77 -73.1577 
78 169.643 
79 49.1729 
80 -68.0264 
81 176.68 
82 163.985 
83 46.7861 
84 -68.5075 
85 73.7734 
86 -44.5702 
87 -164.217 
88 -161.022 
89 -44.9039 
90 -168.42 
91 73.4493 
92 -47.8074 
93 -156.023 
94 82.7208 
95 -37.8921 
96 -41.9012 
97 -163.158 
98 76.2291 
99 -144.677 
100 -26.5576 
101 94.5267 
102 -143.241 
103 -25.2397 
104 100.853 
105 149.497 
106 22.9342 
107 -91.5631 
108 143.121 
109 28.6235 
110 -90.3167 
111 -102.355 
112 143.148 
113 24.2077 
114 -150.897 
115 87.3568 
116 -30.1693 
ITEM: TIMESTEP
16350
ITEM: NUMBER OF ENTRIES
116
ITEM: BOX BOUNDS pp pp pp
-2.2399916446225905e+01 2.2399916446225905e+01
-1.1128071838990754e+01 1.1128071838990754e+01
-1.1128071838990754e+01 1.1128071838990754e+01
ITEM: ENTRIES index c_dphi
1 83.3586 
2 -157.048 
3 -36.8087 
4 -81.8789 
5 158.659 
6 38.8274 
7 -76.4417 
8 163.727 
9 43.0202 
10 39.5391 
11 -80.2927 
12 159.001 
13 119.626 
14 -0.842037 
15 -125.909 
16 -158.002 
17 -45.8976 
18 76.0892 
19 163.082 
20 45.0181 
21 -75.573 
22 166.364 
23 40.5156 
24 -77.5479 
25 -138.147 
26 97.0822 
27 -14.5697 
28 171.615 
29 41.5365 
30 -77.3061 
31 164.964 
32 46.1216 
33 -64.9578 
34 -77.5395 
35 163.618 
36 52.5385 
37 62.545 
38 -60.454 
39 178.97 
40 -166.841 
41 -43.8296 
42 78.4139 
43 129.465 
44 137.998 
45 16.3792 
46 -108.848 
47 -105.782 
48 132.599 
49 7.37163 
50 16.3106 
51 -105.308 
52 -168.175 
53 70.3197 
54 -47.3245 
55 142.6 
56 21.5122 
57 -107.286 
58 -105.974 
59 11.8608 
60 134.348 
61 -93.5561 
62 148.132 
63 26.4089 
64 -95.5667 
65 142.711 
66 22.7455 
67 25.9003 
68 -95.8225 
69 144.213 
70 156.755 
71 41.062 
72 -83.925 
73 134.52 
74 -96.1916 
75 19.3742 
76 52.5856 
77 -81.1288 
78 172.7 
79 36.4268 
80 -69.744 
81 170.141 
82 154.124 
83 47.9533 
84 -72.1614 
85 66.6725 
86 -54.9621 
87 -173.227 
88 -147.745 
89 -28.7123 
90 -147.935 
91 90.0259 
92 -30.1485 
93 -145.473 
94 94.3527 
95 -23.4342 
96 -20.8137 
97 -140.988 
98 101.225 
99 -151.831 
100 -29.7197 
101 88.9998 
102 -149.227 
103 -18.8369 
104 94.4623 
105 161.559 
106 33.9422 
107 -78.2533 
108 155.1 
109 42.9047 
110 -77.2833 
111 -83.5717 
112 164.233 
113 44.0448 
114 -161.561 
115 72.5785 
116 -45.3352 
ITEM: TIMESTEP
16400
ITEM: NUMBER OF ENTRIES
116
ITEM: BOX BOUNDS pp pp pp
-2.2399916446225905e+01 2.2399916446225905e+01
-1.1128071838990754e+01 1.1128071838990754e+01
-1.1128071838990754e+01 1.1128071838990754e+01
ITEM: ENTRIES index c_dphi
1 108.457 
2 -138.783 
3 -18.804 
4 -91.7343 
5 150.627 
6 33.5166 
7 -82.3915 
8 160.498 
9 35.247 
10 37.8073 
11 -79.3032 
12 155.446 
13 108.069 
14 -20.2176 
15 -135.188 
16 -143.876 
17 -26.1127 
18 97.8931 
19 146.283 
20 30.0173 
21 -100.723 
22 143.011 
23 21.2726 
24 -94.9931 
25 -142.275 
26 106.644 
27 -17.0406 
28 175.44 
29 58.6762 
30 -63.0212 
31 178.108 
32 56.411 
33 -65.1273 
34 -59.3024 
35 179 
36 57.4619 
37 40.3312 
38 -79.5655 
39 162.501 
40 -170.984 
41 -57.6393 
42 63.6029 
43 128.722 
44 130.321 
45 14.0625 
46 -108.581 
47 -110.311 
48 133.431 
49 10.787 
50 7.62423 
51 -108.634 
52 -168.976 
53 65.7445 
54 -52.1056 
55 151.429 
56 30.2343 
57 -87.5047 
58 -90.3888 
59 34.5008 
60 147.986 
61 -97.7585 
62 139.611 
63 24.9674 
64 -96.3242 
65 149.032 
66 26.3065 
67 17.7527 
68 -96.8907 
69 140.383 
70 161.766 
71 40.0956 
72 -77.3248 
73 136.885 
74 -94.5678 
75 21.0703 
76 50.7699 
77 -74.1513 
78 162.267 
79 49.2248 
80 -74.3565 
81 174.146 
82 169.615 
83 46.0332 
84 -65.4643 
85 75.841 
86 -51.0932 
87 -167.072 
88 -149.089 
89 -29.6456 
90 -140.957 
91 98.4391 
92 -20.8555 
93 -141.405 
94 99.3005 
95 -20.8013 
96 -19.8857 
97 -139.18 
98 100.718 
99 -179.082 
100 -62.0499 
101 58.8173 
102 -157.537 
103 -36.2082 
104 78.3264 
105 -178.965 
106 55.5618 
107 -58.7544 
108 168.073 
109 53.757 
110 -66.4538 
111 -70.0497 
112 175.634 
113 55.4232 
114 -175.583 
115 67.5141 
116 -53.4119 
ITEM: TIMESTEP
16450
ITEM: NUMBER OF ENTRIES
116
ITEM: BOX BOUNDS pp pp pp
-2.2399916446225905e+01 2.2399916446225905e+01
-1.1128071838990754e+01 1.1128071838990754e+01
-1.1128071838990754e+01 1.1128071838990754e+01
ITEM: ENTRIES index c_dphi
1 116.816 
2 -120.57 
3 -4.16865 
4 -99.6737 
5 138.336 
6 22.8651 
7 -101.324 
8 143.205 
9 20.6662 
10 11.0703 
11 -104.4 
12 133.061 
13 100.965 
14 -12.38 
15 -133.016 
16 -143.37 
17 -19.179 
18 100.659 
19 149.393 
20 37.4506 
21 -92.9991 
22 155.059 
23 23.428 
24 -88.5141 
25 -132.151 
26 108.493 
27 -9.51792 
28 176.151 
29 53.8814 
30 -61.2104 
31 170.57 
32 55.4783 
33 -67.16 
34 -63.4075 
35 -178.499 
36 58.8625 
37 67.0277 
38 -58.1912 
39 -174.069 
40 -174.329 
41 -56.2027 
42 61.2873 
43 132.051 
44 131.024 
45 9.63883 
46 -106.881 
47 -112.451 
48 126.164 
49 9.64425 
50 9.95608 
51 -111.429 
52 -166.833 
53 71.9842 
54 -43.9509 
55 157.067 
56 38.0165 
57 -77.6488 
58 -84.8243 
59 39.3185 
60 161.392 
61 -107.327 
62 127.614 
63 8.66951 
64 -117.799 
65 123.256 
66 7.25911 
67 8.20009 
68 -110.745 
69 133.258 
70 168.887 
71 50.554 
72 -69.768 
73 135.538 
74 -110.271 
75 15.4537 
76 44.5106 
77 -73.3481 
78 165.349 
79 52.4374 
80 -68.8658 
81 170.296 
82 176.075 
83 54.7714 
84 -66.0667 
85 95.375 
86 -26.3982 
87 -148.304 
88 -169.023 
89 -61.2771 
90 -119.076 
91 119.128 
92 -2.91216 
93 -123.894 
94 114.065 
95 -2.09887 
96 -8.84274 
97 -130.883 
98 112.953 
99 179.967 
100 -57.7678 
101 61.9512 
102 153.071 
103 -81.0884 
104 34.1319 
105 -174.403 
106 65.4493 
107 -51.1674 
108 -170.924 
109 72.4598 
110 -50.7757 
111 -53.108 
112 -169.725 
113 67.0398 
114 166.171 
115 40.2581 
116 -76.3362 
ITEM: TIMESTEP
16500
ITEM: NUMBER OF ENTRIES
116
ITEM: BOX BOUNDS pp pp pp
-2.2399916446225905e+01 2.2399916446225905e+01
-1.1128071838990754e+01 1.1128071838990754e+01
-1.1128071838990754e+01 1.1128071838990754e+01
ITEM: ENTRIES index c_dphi
1 135.955 
2 -105.484 
3 18.7962 
4 -111.283 
5 127.444 
6 10.4702 
7 -109.696 
8 133.33 
9 11.5774 
10 14.4292 
11 -102.544 
12 135.703 
13 101.199 
14 -23.0347 
15 -140.393 
16 -146.378 
17 -11.357 
18 105.926 
19 117.789 
20 -2.05249 
21 -124.998 
22 115.161 
23 -13.8297 
24 -133.671 
25 -114.663 
26 130.327 
27 9.90633 
28 173.989 
29 49.2839 
30 -69.7846 
31 175.572 
32 56.5035 
33 -59.7225 
34 -64.4614 
35 176.47 
36 60.244 
37 58.1508 
38 -62.7347 
39 174.598 
40 -163.24 
41 -42.2885 
42 78.6033 
43 127.691 
44 110.594 
45 -6.17528 
46 -114.158 
47 -125.77 
48 117.461 
49 9.47867 
50 -7.55743 
51 -124.327 
52 -150.838 
53 90.5349 
54 -30.9797 
55 159.719 
56 46.8994 
57 -78.188 
58 -88.5766 
59 23.6211 
60 146.788 
61 -117.401 
62 129.283 
63 9.62133 
64 -119.204 
65 121.135 
66 -5.88788 
67 8.72557 
68 -110.936 
69 122.042 
70 -170.01 
71 72.8688 
72 -46.8772 
73 138.106 
74 -101.369 
75 8.56738 
76 32.1243 
77 -86.3251 
78 163.01 
79 45.3964 
80 -65.2682 
81 163.846 
82 156.647 
83 45.982 
84 -84.904 
85 81.5217 
86 -46.4751 
87 -158.566 
88 -155.023 
89 -30.9812 
90 -89.1323 
91 148.52 
92 29.7375 
93 -97.3758 
94 143.842 
95 24.972 
96 21.2921 
97 -97.4903 
98 143.64 
99 -168.967 
100 -45.6215 
101 70.8974 
102 136.709 
103 -113.245 
104 19.1547 
105 -178.137 
106 62.2999 
107 -61.6125 
108 -178.494 
109 57.5936 
110 -58.9313 
111 -58.0278 
112 178.06 
113 61.5349 
114 141.837 
115 25.7035 
116 -99.3109 
ITEM: TIMESTEP
16550
ITEM: NUMBER OF ENTRIES
116
ITEM: BOX BOUNDS pp pp pp
-2.2399916446225905e+01 2.2399916446225905e+01
-1.1128071838990754e+01 1.1128071838990754e+01
-1.1128071838990754e+01 1.1128071838990754e+01
ITEM: ENTRIES index c_dphi
1 149.483 
2 -90.0881 
3 27.8845 
4 -125.434 
5 118.895 
6 1.44992 
7 -116.44 
8 126.114 
9 -0.769359 
10 0.826622 
11 -116.619 
12 116.498 
13 73.6889 
14 -50.1486 
15 -166.002 
16 -135.559 
17 -3.21623 
18 113.352 
19 103.461 
20 -20.5394 
21 -133.419 
22 102.58 
23 -11.1446 
24 -135.145 
25 -96.5905 
26 141.724 
27 18.9996 
28 -173.151 
29 70.1654 
30 -54.9202 
31 -169.052 
32 65.8621 
33 -52.3688 
34 -51.8479 
35 -176.934 
36 64.8357 
37 -34.961 
38 -158.614 
39 82.2927 
40 -157.444 
41 -39.1105 
42 81.017 
43 132.51 
44 121.411 
45 2.5929 
46 -105.951 
47 -122.37 
48 118.812 
49 10.2688 
50 -0.128785 
51 -118.947 
52 -143.097 
53 96.4571 
54 -22.1807 
55 155.156 
56 34.4121 
57 -79.7608 
58 -78.4563 
59 44.6523 
60 163.551 
61 -120.089 
62 115.993 
63 0.294107 
64 -120.973 
65 123.328 
66 2.94462 
67 -5.87045 
68 -121.569 
69 118.047 
70 177.127 
71 55.1216 
72 -59.9675 
73 127.593 
74 -110.031 
75 9.54863 
76 49.2009 
77 -63.2584 
78 167.659 
79 63.481 
80 -65.6019 
81 175.94 
82 -175.695 
83 55.2224 
84 -63.2354 
85 71.3571 
86 -55.1637 
87 -177.468 
88 -154.791 
89 -36.8966 
90 -67.9431 
91 173.807 
92 53.155 
93 -63.8712 
94 175.476 
95 54.3782 
96 52.7342 
97 -67.9183 
98 170.984 
99 172.739 
100 -68.4661 
101 51.8977 
102 145.697 
103 -93.082 
104 25.648 
105 -168.238 
106 80.1219 
107 -48.7144 
108 -155.501 
109 75.6631 
110 -43.8601 
111 -38.7325 
112 -167.569 
113 72.908 
114 124.127 
115 -0.690271 
116 -113.994 
ITEM: TIMESTEP
16600
ITEM: NUMBER OF ENTRIES
116
ITEM: BOX BOUNDS pp pp pp
-2.2399916446225905e+01 2.2399916446225905e+01
-1.1128071838990754e+01 1.1128071838990754e+01
-1.1128071838990754e+01 1.1128071838990754e+01
ITEM: ENTRIES index c_dphi
1 158.71 
2 -81.7883 
3 39.3164 
4 -127.596 
5 119.792 
6 0.295504 
7 -119.915 
8 120.589 
9 -7.30245 
10 -2.31622 
11 -121.812 
12 110.296 
13 65.7215 
14 -54.0824 
15 -173.797 
16 -119.766 
17 0.212385 
18 119.706 
19 77.6776 
20 -28.2406 
21 -152.196 
22 101.886 
23 -38.6593 
24 -144.578 
25 -86.5373 
26 144.269 
27 29.7514 
28 -169.445 
29 70.7614 
30 -45.4907 
31 -171.327 
32 72.4209 
33 -51.5338 
34 -45.2198 
35 -161.472 
36 74.5735 
37 -88.7995 
38 149.366 
39 32.4713 
40 -171.178 
41 -51.5749 
42 66.0864 
43 141.052 
44 138.421 
45 14.5436 
46 -100.933 
47 -96.9665 
48 139.156 
49 23.6794 
50 20.4062 
51 -103.471 
52 -158.704 
53 81.4406 
54 -40.1576 
55 173.686 
56 52.6281 
57 -71.4272 
58 -78.2059 
59 44.7641 
60 165.394 
61 -105.923 
62 131.69 
63 10.0503 
64 -107.641 
65 130.719 
66 14.7461 
67 17.4717 
68 -104.168 
69 139.859 
70 169.878 
71 50.6785 
72 -71.0515 
73 114.817 
74 -123.611 
75 -4.63387 
76 46.5704 
77 -75.9197 
78 170.106 
79 47.4804 
80 -66.4938 
81 169.97 
82 164.035 
83 50.0605 
84 -73.4753 
85 82.0189 
86 -41.3459 
87 -156.646 
88 -162.664 
89 -49.9546 
90 -58.3354 
91 -175.913 
92 63.3725 
93 -51.4774 
94 -172.191 
95 66.1006 
96 69.1766 
97 -51.5375 
98 -173.245 
99 167.924 
100 -74.5759 
101 48.0097 
102 -163.41 
103 -46.612 
104 74.943 
105 -167.587 
106 69.0021 
107 -46.694 
108 -166.57 
109 77.7339 
110 -43.1592 
111 -47.445 
112 -163.141 
113 75.9659 
114 116.653 
115 -3.67348 
116 -127.189 
ITEM: TIMESTEP
16650
ITEM: NUMBER OF ENTRIES
116
ITEM: BOX BOUNDS pp pp pp
-2.2399916446225905e+01 2.2399916446225905e+01
-1.1128071838990754e+01 1.1128071838990754e+01
-1.1128071838990754e+01 1.1128071838990754e+01
ITEM: ENTRIES index c_dphi
1 169.198 
2 -74.2603 
3 42.6982 
4 -138.854 
5 104.066 
6 -11.934 
7 -131.68 
8 112.32 
9 -14.6 
10 -13.0943 
11 -129.094 
12 103.986 
13 59.6837 
14 -68.6587 
15 176.292 
16 -114.943 
17 -0.574388 
18 122.359 
19 80.3198 
20 -39.0973 
21 -162.413 
22 78.17 
23 -39.3387 
24 -158.756 
25 -84.3955 
26 153.568 
27 36.5099 
28 171.062 
29 46.7242 
30 -70.8807 
31 168.39 
32 50.7852 
33 -67.2716 
34 -69.5977 
35 172.797 
36 54.7405 
37 -71.455 
38 166.374 
39 46.5003 
40 175.231 
41 -61.8428 
42 62.4638 
43 135.193 
44 136.467 
45 24.0272 
46 -103.744 
47 -108.996 
48 138.565 
49 10.7939 
50 15.4036 
51 -97.0358 
52 -162.471 
53 76.3108 
54 -37.7107 
55 178.994 
56 53.4318 
57 -65.9901 
58 -78.8318 
59 41.7939 
60 151.551 
61 -85.9143 
62 158.326 
63 40.5728 
64 -71.7278 
65 170.519 
66 44.0319 
67 40.2736 
68 -77.4795 
69 156.033 
70 167.462 
71 41.6301 
72 -75.4733 
73 92.0833 
74 -148.855 
75 -29.6228 
76 50.5453 
77 -72.3951 
78 169.006 
79 46.1062 
80 -72.4929 
81 169.047 
82 163.299 
83 44.6998 
84 -73.7607 
85 75.4371 