ITEM: TIMESTEP
25000
ITEM: NUMBER OF ENTRIES
116
ITEM: BOX BOUNDS pp pp pp
-2.2058682000400125e+01 2.2058682000400125e+01
-1.1128071838990754e+01 1.1128071838990754e+01
-1.1128071838990754e+01 1.1128071838990754e+01
ITEM: ENTRIES index c_dphi c_prop
1 89.7438 1 
2 -147.309 4 
3 -30.106 4 
4 -175.694 1 
5 61.2922 4 
6 -54.8772 4 
7 -106.5 1 
8 138.699 4 
9 26.6927 4 
10 72.0133 4 
11 -172.182 4 
12 10.1187 4 
13 -106.335 4 
14 118.636 4 
15 2.18222 4 
16 -116.927 4 
17 126.619 4 
18 -145.326 1 
19 -26.1804 4 
20 97.1772 4 
21 -106.237 3 
22 -94.0728 4 
23 146.446 4 
24 15.9366 4 
25 25.3675 4 
26 -94.1136 4 
27 135.377 4 
28 143.754 4 
29 24.2725 4 
30 74.3586 1 
31 -175.57 4 
32 -57.2079 4 
33 87.1093 3 
34 -30.0811 4 
35 -154.331 4 
36 80.7957 4 
37 -43.4542 4 
38 -162.014 4 
39 -147.685 4 
40 88.0647 4 
41 -30.495 4 
42 -177.657 2 
43 60.8187 4 
44 -51.2922 4 
45 -166.554 4 
46 81.3352 4 
47 -45.0302 4 
48 -50.414 4 
49 -162.525 4 
50 71.1098 4 
51 62.8354 1 
52 -70.7967 4 
53 174.958 4 
54 -154.063 1 
55 80.4729 4 
56 -36.0738 4 
57 -114.346 1 
58 122.764 4 
59 2.54743 4 
60 -140.078 1 
61 -15.0173 4 
62 98.513 4 
63 -161.023 3 
64 77.6285 4 
65 -42.5708 4 
66 -161.548 4 
67 78.2531 4 
68 -40.1994 4 
69 -38.5763 4 
70 -158.776 4 
71 82.772 4 
72 154.562 1 
73 32.4754 4 
74 -88.895 4 
75 115.352 1 
76 -121.516 4 
77 -9.06692 4 
78 -142.483 3 
79 98.4781 4 
80 -15.6089 4 
81 -134.956 4 
82 110.957 4 
83 -15.9171 4 
84 -23.7499 4 
85 -137.837 4 
86 95.2892 4 
87 -158.914 1 
88 86.9796 4 
89 -31.5251 4 
90 -143.291 1 
91 95.4666 4 
92 -23.1418 4 
93 -60.2899 3 
94 -175.996 4 
95 60.8402 4 
96 -67.9479 4 
97 168.888 4 
98 47.7579 4 
99 59.0568 4 
100 -64.1072 4 
101 174.763 4 
102 -90.1322 1 
103 20.4191 4 
104 149.827 4 
105 78.3818 2 
106 -31.9327 4 
107 -153.134 4 
108 92.4663 4 
109 -28.735 4 
110 -157.219 4 
111 -149.481 4 
112 89.3174 4 
113 -39.1668 4 
114 -20.4565 1 
115 91.9832 4 
116 -149.477 4 
ITEM: TIMESTEP
25050
ITEM: NUMBER OF ENTRIES
116
ITEM: BOX BOUNDS pp pp pp
-2.2058682000400125e+01 2.2058682000400125e+01
-1.1128071838990754e+01 1.1128071838990754e+01
-1.1128071838990754e+01 1.1128071838990754e+01
ITEM: ENTRIES index c_dphi c_prop
1 93.8244 1 
2 -148.287 4 
3 -32.9976 4 
4 -171.853 1 
5 63.834 4 
6 -54.9982 4 
7 -89.0109 1 
8 154.581 4 
9 34.2521 4 
10 51.7002 4 
11 163.272 4 
12 4.5564 4 
13 -103.277 4 
14 113.417 4 
15 5.58278 4 
16 -122.503 4 
17 129.663 4 
18 -141.957 1 
19 -25.0506 4 
20 91.6358 4 
21 -107.287 3 
22 -106.687 4 
23 135.938 4 
24 7.41231 4 
25 14.6582 4 
26 -102.717 4 
27 128.757 4 
28 138.614 4 
29 21.2383 4 
30 79.8033 1 
31 -162.961 4 
32 -48.6462 4 
33 74.7567 3 
34 -42.0485 4 
35 -160.524 4 
36 78.7744 4 
37 -39.7011 4 
38 -164.42 4 
39 -167.05 4 
40 74.4745 4 
41 -50.2447 4 
42 -177.941 2 
43 68.1173 4 
44 -51.3531 4 
45 -162.926 4 
46 77.6039 4 
47 -48.984 4 
48 -48.2645 4 
49 -167.735 4 
50 65.6772 4 
51 52.0828 1 
52 -77.5928 4 
53 162.879 4 
54 -154.297 1 
55 90.5158 4 
56 -28.2529 4 
57 -91.7301 1 
58 142.3 4 
59 25.7072 4 
60 -157.801 1 
61 -40.6616 4 
62 89.4273 4 
63 -158.072 3 
64 80.8518 4 
65 -39.7812 4 
66 -160.112 4 
67 79.2555 4 
68 -39.0354 4 
69 -41.7816 4 
70 -162.415 4 
71 79.2946 4 
72 -171.372 1 
73 64.8091 4 
74 -50.2695 4 
75 98.3331 1 
76 -148.562 4 
77 -21.9369 4 
78 -167.077 3 
79 79.1639 4 
80 -40.4079 4 
81 -157.702 4 
82 82.7265 4 
83 -43.9425 4 
84 -37.6197 4 
85 -157.192 4 
86 76.1394 4 
87 -145.56 1 
88 96.1843 4 
89 -16.8537 4 
90 -159.82 1 
91 88.2797 4 
92 -32.5557 4 
93 -74.4771 3 
94 164.48 4 
95 54.6702 4 
96 -88.6584 4 
97 161.532 4 
98 32.3848 4 
99 34.1317 4 
100 -75.6779 4 
101 155.175 4 
102 -70.0436 1 
103 51.2137 4 
104 162.651 4 
105 69.2869 2 
106 -47.2724 4 
107 -159.653 4 
108 71.1515 4 
109 -41.2293 4 
110 -172.289 4 
111 -171.167 4 
112 76.4517 4 
113 -54.6082 4 
114 -100.501 1 
115 10.8596 4 
116 128.43 4 
ITEM: TIMESTEP
25100
ITEM: NUMBER OF ENTRIES
116
ITEM: BOX BOUNDS pp pp pp
-2.2058682000400125e+01 2.2058682000400125e+01
-1.1128071838990754e+01 1.1128071838990754e+01
-1.1128071838990754e+01 1.1128071838990754e+01
ITEM: ENTRIES index c_dphi c_prop
1 105.43 1 
2 -137.808 4 
3 -16.5091 4 
4 -172.637 1 
5 70.0353 4 
6 -52.4044 4 
7 -102.584 1 
8 136.595 4 
9 20.6565 4 
10 45.3512 4 
11 163.117 4 
12 6.85757 4 
13 -113.078 4 
14 125.349 4 
15 5.41327 4 
16 -118.734 4 
17 121.33 4 
18 -148.824 1 
19 -23.3273 4 
20 96.3407 4 
21 -104.709 3 
22 -103.528 4 
23 143.329 4 
24 17.2788 4 
25 13.7034 4 
26 -99.439 4 
27 134.511 4 
28 134.484 4 
29 21.3411 4 
30 95.0118 1 
31 -145.264 4 
32 -26.0269 4 
33 58.1929 3 
34 -64.8706 4 
35 179.187 4 
36 47.586 4 
37 -68.3567 4 
38 170.649 4 
39 167.67 4 
40 51.7274 4 
41 -69.2664 4 
42 -176.115 2 
43 60.5147 4 
44 -63.3361 4 
45 -168.105 4 
46 68.0437 4 
47 -44.7351 4 
48 -53.0157 4 
49 -176.867 4 
50 70.3547 4 
51 33.9972 1 
52 -94.6115 4 
53 143.699 4 
54 -161.62 1 
55 75.1918 4 
56 -45.17 4 
57 -75.6875 1 
58 162.486 4 
59 41.9992 4 
60 -139.265 1 
61 -21.7841 4 
62 97.2643 4 
63 -152.94 3 
64 88.9794 4 
65 -26.7899 4 
66 -148.667 4 
67 95.5642 4 
68 -30.5858 4 
69 -34.859 4 
70 -150.628 4 
71 83.2218 4 
72 -165.157 1 
73 69.6619 4 
74 -43.7497 4 
75 113.829 1 
76 -127.696 4 
77 -10.0229 4 
78 -162.263 3 
79 83.4459 4 
80 -33.5369 4 
81 -157.548 4 
82 85.4689 4 
83 -43.2572 4 
84 -35.6234 4 
85 -152.606 4 
86 78.6676 4 
87 -163.634 1 
88 82.0898 4 
89 -44.2461 4 
90 -161.451 1 
91 83.2497 4 
92 -34.4491 4 
93 -86.9611 3 
94 150.234 4 
95 30.3859 4 
96 -91.8525 4 
97 148.299 4 
98 30.9525 4 
99 26.6102 4 
100 -93.2379 4 
101 149.415 4 
102 -79.4252 1 
103 48.7083 4 
104 164.515 4 
105 64.0344 2 
106 -52.113 4 
107 -167.717 4 
108 68.6236 4 
109 -46.9808 4 
110 -175.229 4 
111 -178.303 4 
112 66.0927 4 
113 -62.1555 4 
114 -105.933 1 
115 17.046 4 
116 125.316 4 
ITEM: TIMESTEP
25150
ITEM: NUMBER OF ENTRIES
116
ITEM: BOX BOUNDS pp pp pp
-2.2058682000400125e+01 2.2058682000400125e+01
-1.1128071838990754e+01 1.1128071838990754e+01
-1.1128071838990754e+01 1.1128071838990754e+01
ITEM: ENTRIES index c_dphi c_prop
1 115.394 1 
2 -125.924 4 
3 -7.8268 4 
4 -170.438 1 
5 58.9256 4 
6 -53.9598 4 
7 -103.795 1 
8 147.132 4 
9 20.3125 4 
10 29.3757 4 
11 146.731 4 
12 11.3467 4 
13 -108.763 4 
14 124.917 4 
15 4.80733 4 
16 -118.66 4 
17 121.23 4 
18 -151.623 1 
19 -37.9825 4 
20 83.4249 4 
21 -103.857 3 
22 -110.316 4 
23 128.144 4 
24 12.6502 4 
25 8.83761 4 
26 -112.703 4 
27 131.803 4 
28 133.177 4 
29 11.6365 4 
30 118.506 1 
31 -120.223 4 
32 4.54823 4 
33 35.5985 3 
34 -75.4404 4 
35 160.953 4 
36 45.9096 4 
37 -77.6969 4 
38 156.948 4 
39 164.608 4 
40 41.0015 4 
41 -84.353 4 
42 174.3 2 
43 56.6271 4 
44 -59.647 4 
45 -179.867 4 
46 63.8591 4 
47 -62.1939 4 
48 -57.7868 4 
49 -174.061 4 
50 59.8862 4 
51 -13.0785 1 
52 -137.076 4 
53 108.889 4 
54 -154.96 1 
55 85.7498 4 
56 -26.8061 4 
57 -76.046 1 
58 163.709 4 
59 40.9728 4 
60 -128.47 1 
61 -3.85578 4 
62 113.27 4 
63 -153.447 3 
64 80.128 4 
65 -33.1044 4 
66 -159.974 4 
67 86.7937 4 
68 -33.5491 4 
69 -33.8036 4 
70 -147.036 4 
71 92.6211 4 
72 -176.89 1 
73 66.239 4 
74 -64.0612 4 
75 135.487 1 
76 -110.021 4 
77 14.3518 4 
78 -126.711 3 
79 120.274 4 
80 -4.25579 4 
81 -117.026 4 
82 118.444 4 
83 -4.01078 4 
84 -0.44972 4 
85 -124.979 4 
86 112.566 4 
87 -171.22 1 
88 66.7217 4 
89 -50.6272 4 
90 175.609 1 
91 53.6948 4 
92 -67.3065 4 
93 -117.785 3 
94 119.965 4 
95 6.92753 4 
96 -108.848 4 
97 138.115 4 
98 13.4023 4 
99 -0.910982 4 
100 -113.948 4 
101 121.339 4 
102 -75.5982 1 
103 45.4143 4 
104 156.037 4 
105 73.7295 2 
106 -37.2083 4 
107 -159.532 4 
108 84.503 4 
109 -37.8211 4 
110 -164.559 4 
111 -155.156 4 
112 82.5199 4 
113 -44.2181 4 
114 -89.4691 1 
115 22.1238 4 
116 137.812 4 
ITEM: TIMESTEP
25200
ITEM: NUMBER OF ENTRIES
116
ITEM: BOX BOUNDS pp pp pp
-2.2058682000400125e+01 2.2058682000400125e+01
-1.1128071838990754e+01 1.1128071838990754e+01
-1.1128071838990754e+01 1.1128071838990754e+01
ITEM: ENTRIES index c_dphi c_prop
1 125.039 1 
2 -114.517 4 
3 4.31898 4 
4 -155.824 1 
5 85.2202 4 
6 -37.274 4 
7 -94.857 1 
8 145.896 4 
9 24.7156 4 
10 22.7693 4 
11 132.925 4 
12 -0.69824 4 
13 -112.68 4 
14 124.894 4 
15 12.9123 4 
16 -120.914 4 
17 127.104 4 
18 -155.602 1 
19 -35.815 4 
20 86.8016 4 
21 -123.893 3 
22 -129.277 4 
23 115.584 4 
24 -4.98592 4 
25 -3.59995 4 
26 -118.739 4 
27 120.691 4 
28 111.816 4 
29 -3.32303 4 
30 127.325 1 
31 -109.77 4 
32 6.91559 4 
33 27.6873 3 
34 -89.4009 4 
35 153.718 4 
36 26.5736 4 
37 -90.3072 4 
38 143.662 4 
39 143.611 4 
40 26.7307 4 
41 -99.3004 4 
42 177.158 2 
43 53.8385 4 
44 -65.761 4 
45 171.31 4 
46 51.7108 4 
47 -65.3699 4 
48 -64.9737 4 
49 175.427 4 
50 58.3461 4 
51 -30.1548 1 
52 -153.699 4 
53 82.0507 4 
54 -160.235 1 
55 80.7604 4 
56 -49.3357 4 
57 -78.3643 1 
58 161.995 4 
59 49.0705 4 
60 -150.428 1 
61 -31.3411 4 
62 93.9466 4 
63 -160.241 3 
64 79.3099 4 
65 -42.5737 4 
66 -161.707 4 
67 76.4099 4 
68 -41.2575 4 
69 -40.4776 4 
70 -162.361 4 
71 79.9715 4 
72 -169.307 1 
73 68.111 4 
74 -46.9522 4 
75 150.337 1 
76 -90.7475 4 
77 25.3039 4 
78 -121.05 3 
79 120.609 4 
80 2.86203 4 
81 -120.664 4 
82 121.589 4 
83 -2.32376 4 
84 -2.51529 4 
85 -120.263 4 
86 115.825 4 
87 -156.088 1 
88 73.9944 4 
89 -43.3412 4 
90 161.764 1 
91 40.3932 4 
92 -78.6008 4 
93 -113.357 3 
94 127.341 4 
95 3.70941 4 
96 -96.7892 4 
97 139.579 4 
98 22.5122 4 
99 20.2075 4 
100 -103.424 4 
101 139.509 4 
102 -77.9598 1 
103 38.7261 4 
104 162.614 4 
105 53.8252 2 
106 -59.3161 4 
107 176 4 
108 58.8103 4 
109 -65.874 4 
110 171.952 4 
111 176.005 4 
112 51.3207 4 
113 -70.8536 4 
114 -101.027 1 
115 10.8525 4 
116 139.994 4 
ITEM: TIMESTEP
25250
ITEM: NUMBER OF ENTRIES
116
ITEM: BOX BOUNDS pp pp pp
-2.2058682000400125e+01 2.2058682000400125e+01
-1.1128071838990754e+01 1.1128071838990754e+01
-1.1128071838990754e+01 1.1128071838990754e+01
ITEM: ENTRIES index c_dphi c_prop
1 113.081 1 
2 -128.951 4 
3 -12.0916 4 
4 -160.343 1 
5 80.2388 4 
6 -35.9536 4 
7 -103.706 1 
8 135.289 4 
9 17.001 4 
10 12.5103 4 
11 140.187 4 
12 -0.398629 4 
13 -124.175 4 
14 121.698 4 
15 -2.07907 4 
16 -118.706 4 
17 117.517 4 
18 -160.78 1 
19 -43.0746 4 
20 75.6155 4 
21 -127.332 3 
22 -107.287 4 
23 124.958 4 
24 -4.34977 4 
25 7.76506 4 
26 -119.99 4 
27 110.702 4 
28 129.73 4 
29 1.97501 4 
30 129.03 1 
31 -115.309 4 
32 3.68596 4 
33 39.2369 3 
34 -81.1523 4 
35 168.251 4 
36 32.8311 4 
37 -77.7652 4 
38 153.22 4 
39 153.051 4 
40 42.4547 4 
41 -86.5597 4 
42 -155.934 2 
43 88.3117 4 
44 -38.4983 4 
45 -143.449 4 
46 89.741 4 
47 -27.6944 4 
48 -21.7951 4 
49 -148.605 4 
50 93.9595 4 
51 -45.5079 1 
52 -166.135 4 
53 72.662 4 
54 -176.497 1 
55 61.7157 4 
56 -52.7686 4 
57 -68.5112 1 
58 178.977 4 
59 57.138 4 
60 178.087 1 
61 -64.8674 4 
62 51.5331 4 
63 177.992 3 
64 60.1323 4 
65 -53.7036 4 
66 177.359 4 
67 63.5233 4 
68 -64.781 4 
69 -65.3172 4 
70 -179.153 4 
71 52.5427 4 
72 -152.239 1 
73 92.6896 4 
74 -28.2645 4 
75 168.129 1 
76 -65.2353 4 
77 55.2163 4 
78 -124.468 3 
79 106.253 4 
80 -17.1725 4 
81 -139.368 4 
82 97.2066 4 
83 -10.0893 4 
84 -23.6911 4 
85 -147.117 4 
86 105.587 4 
87 -146.307 1 
88 90.3486 4 
89 -24.3353 4 
90 151.435 1 
91 30.0941 4 
92 -90.5044 4 
93 -116.311 3 
94 121.286 4 
95 1.31839 4 
96 -116.34 4 
97 123.692 4 
98 6.06265 4 
99 9.79781 4 
100 -110.17 4 
101 132.2 4 
102 -75.9492 1 
103 43.7205 4 
104 164.351 4 
105 55.5825 2 
106 -46.5681 4 
107 -177.891 4 
108 74.4778 4 
109 -56.845 4 
110 176.628 4 
111 -171.538 4 
112 57.1393 4 
113 -69.3873 4 
114 -86.9364 1 
115 23.7421 4 
116 142.376 4 
ITEM: TIMESTEP
25300
ITEM: NUMBER OF ENTRIES
116
ITEM: BOX BOUNDS pp pp pp
-2.2058682000400125e+01 2.2058682000400125e+01
-1.1128071838990754e+01 1.1128071838990754e+01
-1.1128071838990754e+01 1.1128071838990754e+01
ITEM: ENTRIES index c_dphi c_prop
1 99.1276 1 
2 -146.038 4 
3 -25.8101 4 
4 -155.4 1 
5 71.6692 4 
6 -43.8683 4 
7 -101.854 1 
8 137.92 4 
9 20.5 4 
10 9.30416 4 
11 125.493 4 
12 21.0227 4 
13 -92.0214 4 
14 136.247 4 
15 23.2028 4 
16 -100.901 4 
17 146.055 4 
18 -174.078 1 
19 -52.2354 4 
20 64.1517 4 
21 -131.637 3 
22 -124.894 4 
23 115.092 4 
24 -7.56626 4 
25 -4.26777 4 
26 -124.282 4 
27 113.06 4 
28 111.036 4 
29 -8.97826 4 
30 147.39 1 
31 -95.1752 4 
32 29.0621 4 
33 36.9225 3 
34 -71.95 4 
35 163.103 4 
36 58.0555 4 
37 -66.8914 4 
38 166.928 4 
39 171.054 4 
40 46.1067 4 
41 -80.0739 4 
42 -153.85 2 
43 81.1272 4 
44 -34.8958 4 
45 -158.197 4 
46 85.7798 4 
47 -33.1739 4 
48 -32.6612 4 
49 -148.684 4 
50 92.362 4 
51 -47.8158 1 
52 -174.461 4 
53 57.2614 4 
54 -179.594 1 
55 57.0788 4 
56 -66.6199 4 
57 -71.6618 1 
58 169.076 4 
59 57.5175 4 
60 168.855 1 
61 -67.1662 4 
62 51.7251 4 
63 168.103 3 
64 46.2012 4 
65 -77.086 4 
66 159.917 4 
67 36.6296 4 
68 -78.1817 4 
69 -70.3945 4 
70 166.318 4 
71 51.507 4 
72 -142.02 1 
73 100.447 4 
74 -20.8783 4 
75 178.716 1 
76 -56.6644 4 
77 63.417 4 
78 -128.293 3 
79 108.859 4 
80 -13.2765 4 
81 -132.631 4 
82 105.233 4 
83 -9.78413 4 
84 -19.4769 4 
85 -141.613 4 
86 103.37 4 
87 -148.936 1 
88 97.7952 4 
89 -27.4388 4 
90 134.137 1 
91 15.9224 4 
92 -108.158 4 
93 -108.474 3 
94 132.608 4 
95 10.6922 4 
96 -112.922 4 
97 125.163 4 
98 5.99688 4 
99 7.70601 4 
100 -114.209 4 
101 126.624 4 
102 -92.6119 1 
103 26.013 4 
104 144.217 4 
105 80.2833 2 
106 -34.3195 4 
107 -153.603 4 
108 84.8396 4 
109 -34.4434 4 
110 -160.558 4 
111 -156.423 4 
112 84.2937 4 
113 -41.8205 4 
114 -54.4461 1 
115 59.9431 4 
116 176.718 4 
ITEM: TIMESTEP
25350
ITEM: NUMBER OF ENTRIES
116
ITEM: BOX BOUNDS pp pp pp
-2.2058682000400125e+01 2.2058682000400125e+01
-1.1128071838990754e+01 1.1128071838990754e+01
-1.1128071838990754e+01 1.1128071838990754e+01
ITEM: ENTRIES index c_dphi c_prop
1 66.8084 1 
2 -167.784 4 
3 -51.071 4 
4 -161.306 1 
5 85.0749 4 
6 -40.4172 4 
7 -110.944 1 
8 127.974 4 
9 11.1517 4 
10 19.3691 4 
11 138.99 4 
12 46.3533 4 
13 -68.2929 4 
14 160.815 4 
15 46.1686 4 
16 -75.8119 4 
17 169.542 4 
18 156.956 1 
19 -93.5289 4 
20 29.42 4 
21 -116.282 3 
22 -124.243 4 
23 127.062 4 
24 -0.107927 4 
25 -4.82495 4 
26 -113.519 4 
27 119.31 4 
28 119.582 4 
29 10.8879 4 
30 158.005 1 
31 -78.586 4 
32 34.1763 4 
33 62.77 3 
34 -63.7488 4 
35 175.975 4 
36 45.262 4 
37 -75.0145 4 
38 171.781 4 
39 172.486 4 
40 52.2095 4 
41 -60.9952 4 
42 172.843 2 
43 58.8488 4 
44 -57.4655 4 
45 -174.855 4 
46 68.8304 4 
47 -60.8614 4 
48 -51.7934 4 
49 -168.108 4 
50 62.2004 4 
51 -3.2094 1 
52 -129.875 4 
53 116.583 4 
54 -171.905 1 
55 74.3902 4 
56 -44.1452 4 
57 -91.6169 1 
58 155.302 4 
59 32.2667 4 
60 -176.604 1 
61 -59.9436 4 
62 65.9266 4 
63 179.124 3 
64 57.2164 4 
65 -59.6046 4 
66 174.273 4 
67 57.4518 4 
68 -63.8201 4 
69 -72.2846 4 
70 170.894 4 
71 49.6225 4 
72 -140.878 1 
73 103.464 4 
74 -22.8853 4 
75 177.965 1 
76 -58.9207 4 
77 59.0801 4 
78 -130.336 3 
79 107.964 4 
80 -11.54 4 
81 -141.126 4 
82 99.3708 4 
83 -19.4252 4 
84 -23.5312 4 
85 -143.035 4 
86 98.1691 4 
87 -148.916 1 
88 97.236 4 
89 -18.5565 4 
90 140.601 1 
91 9.827 4 
92 -102.272 4 
93 -117.598 3 
94 119.49 4 
95 5.28667 4 
96 -132.492 4 
97 113.305 4 
98 -9.58003 4 
99 -14.494 4 
100 -128.697 4 
101 108.418 4 
102 -81.0311 1 
103 43.3021 4 
104 155.276 4 
105 48.655 2 
106 -73.7953 4 
107 -173.296 4 
108 56.7129 4 
109 -42.7874 4 
110 179.163 4 
111 169.635 4 
112 70.1347 4 
113 -67.9148 4 
114 -91.6272 1 
115 25.815 4 
116 135.198 4 
ITEM: TIMESTEP
25400
ITEM: NUMBER OF ENTRIES
116
ITEM: BOX BOUNDS pp pp pp
-2.2058682000400125e+01 2.2058682000400125e+01
-1.1128071838990754e+01 1.1128071838990754e+01
-1.1128071838990754e+01 1.1128071838990754e+01
ITEM: ENTRIES index c_dphi c_prop
1 42.9634 1 
2 172.933 4 
3 -72.5247 4 
4 -154.956 1 
5 79.8518 4 
6 -35.9472 4 
7 -113.855 1 
8 128.968 4 
9 12.8133 4 
10 43.3638 4 
11 172.132 4 
12 67.6086 4 
13 -56.3456 4 
14 -176.625 4 
15 59.4211 4 
16 -56.2464 4 
17 179.799 4 
18 150.596 1 
19 -85.4184 4 
20 33.1827 4 
21 -115.274 3 
22 -104.227 4 
23 126.408 4 
24 15.0458 4 
25 7.52411 4 
26 -121.841 4 
27 126.797 4 
28 125.453 4 
29 -3.91201 4 
30 -178.912 1 
31 -58.8624 4 
32 68.7767 4 
33 53.6377 3 
34 -75.2006 4 
35 163.695 4 
36 51.484 4 
37 -69.6204 4 
38 -179.678 4 
39 157.876 4 
40 36.7712 4 
41 -73.286 4 
42 175.132 2 
43 51.0482 4 
44 -69.1582 4 
45 -175.38 4 
46 64.4141 4 
47 -51.2958 4 
48 -63.6334 4 
49 176.16 4 
50 60.4503 4 
51 -52.2583 1 
52 173.454 4 
53 56.7282 4 
54 -178.111 1 
55 48.0885 4 
56 -63.6531 4 
57 -89.8451 1 
58 150.737 4 
59 31.5877 4 
60 -172.553 1 
61 -46.1392 4 
62 68.2581 4 
63 178.839 3 
64 54.1955 4 
65 -65.2817 4 
66 171.646 4 
67 52.1684 4 
68 -63.7113 4 
69 -69.7849 4 
70 170.738 4 
71 54.8582 4 
72 -131.571 1 
73 107.69 4 
74 -10.3295 4 
75 170.657 1 
76 -66.3948 4 
77 52.7693 4 
78 -149.006 3 
79 91.7748 4 
80 -33.0356 4 
81 -154.269 4 
82 80.9211 4 
83 -35.0489 4 
84 -35.7829 4 
85 -160.593 4 
86 83.4367 4 
87 -143.22 1 
88 103.219 4 
89 -8.62198 4 
90 136.716 1 
91 19.8402 4 
92 -101.179 4 
93 -131.741 3 
94 106.224 4 
95 -14.6252 4 
96 -137.96 4 
97 101.191 4 
98 -15.9248 4 
99 -35.0496 4 
100 -155.899 4 
101 86.9852 4 
102 -71.3326 1 
103 54.9371 4 
104 177.082 4 
105 37.8016 2 
106 -86.9527 4 
107 167.678 4 
108 31.6862 4 
109 -73.6828 4 
110 156.441 4 
111 151.356 4 
112 45.9867 4 
113 -83.89 4 
114 -45.1215 1 
115 79.2704 4 
116 -176.165 4 
ITEM: TIMESTEP
25450
ITEM: NUMBER OF ENTRIES
116
ITEM: BOX BOUNDS pp pp pp
-2.2058682000400125e+01 2.2058682000400125e+01
-1.1128071838990754e+01 1.1128071838990754e+01
-1.1128071838990754e+01 1.1128071838990754e+01
ITEM: ENTRIES index c_dphi c_prop
1 78.1438 1 
2 -153.774 4 
3 -37.3134 4 
4 -147.789 1 
5 89.8933 4 
6 -29.9837 4 
7 -126.861 1 
8 120.285 4 
9 -1.47688 4 
10 48.3561 4 
11 160.054 4 
12 59.6103 4 
13 -52.7355 4 
14 173.767 4 
15 61.4213 4 
16 -66.2624 4 
17 -178.608 4 
18 152.453 1 
19 -92.5939 4 
20 25.5394 4 
21 -104.63 3 
22 -117.903 4 
23 130.088 4 
24 8.53671 4 
25 3.6133 4 
26 -108.396 4 
27 130.053 4 
28 128.93 4 
29 16.9212 4 
30 -152.123 1 
31 -29.4234 4 
32 84.6063 4 
33 9.31231 3 
34 -119.091 4 
35 124.994 4 
36 -6.34797 4 
37 -122.262 4 
38 122.055 4 
39 122.926 4 
40 7.0118 4 
41 -108.67 4 
42 -169.597 2 
43 77.0791 4 
44 -43.5556 4 
45 -150.286 4 
46 89.0789 4 
47 -36.9623 4 
48 -44.3272 4 
49 -164.962 4 
50 68.9969 4 
51 -93.6747 1 
52 140.065 4 
53 26.6627 4 
54 155.653 1 
55 46.3724 4 
56 -79.1693 4 
57 -87.1694 1 
58 153.411 4 
59 35.9298 4 
60 -171.919 1 
61 -53.3994 4 
62 66.4653 4 
63 168.399 3 
64 45.946 4 
65 -67.4091 4 
66 156.029 4 
67 42.6736 4 
68 -81.5186 4 
69 -76.4324 4 
70 170.212 4 
71 46.0202 4 
72 -138.903 1 
73 107.622 4 
74 -17.0328 4 
75 -175.73 1 
76 -58.6558 4 
77 65.5234 4 
78 -139.709 3 
79 97.6043 4 
80 -17.5863 4 
81 -142.211 4 
82 102.598 4 
83 -19.5238 4 
84 -27.7489 4 
85 -142.94 4 
86 94.9382 4 
87 -154.189 1 
88 90.8201 4 
89 -30.8508 4 
90 101.465 1 
91 -18.0556 4 
92 -138.536 4 
93 -145.997 3 
94 91.9268 4 
95 -21.2274 4 
96 -161.625 4 
97 85.221 4 
98 -39.5489 4 
99 -38.3576 4 
100 -151.512 4 
101 83.7182 4 
102 -39.695 1 
103 84.5545 4 
104 -162.631 4 
105 57.8107 2 
106 -67.5861 4 
107 -179.822 4 
108 51.048 4 
109 -61.1882 4 
110 176.445 4 
111 173.605 4 
112 61.3684 4 
113 -60.9986 4 
114 -53.974 1 
115 75.2147 4 
116 -175.649 4 
ITEM: TIMESTEP
25500
ITEM: NUMBER OF ENTRIES
116
ITEM: BOX BOUNDS pp pp pp
-2.2058682000400125e+01 2.2058682000400125e+01
-1.1128071838990754e+01 1.1128071838990754e+01
-1.1128071838990754e+01 1.1128071838990754e+01
ITEM: ENTRIES index c_dphi c_prop
1 114.442 1 
2 -125.874 4 
3 -9.89834 4 
4 -121.536 1 
5 113.463 4 
6 -4.60898 4 
7 -121.934 1 
8 121.538 4 
9 -1.52476 4 
10 37.7622 4 
11 156.44 4 
12 42.7337 4 
13 -79.7623 4 
14 164.114 4 
15 41.6176 4 
16 -78.1686 4 
17 159.335 4 
18 170.739 1 
19 -72.8789 4 
20 44.7352 4 
21 -133.442 3 
22 -120.241 4 
23 110.897 4 
24 -11.3346 4 
25 -0.952672 4 
26 -129.815 4 
27 107.954 4 
28 117.652 4 
29 -11.21 4 
30 -166.503 1 
31 -53.9135 4 
32 66.0589 4 
33 -11.5373 3 
34 -129.482 4 
35 118.994 4 
36 -7.32411 4 
37 -118.848 4 
38 110.62 4 
39 105.112 4 
40 -6.41228 4 
41 -136.944 4 
42 -174.981 2 
43 67.6197 4 
44 -49.1739 4 
45 -167.507 4 
46 75.6998 4 
47 -50.1071 4 
48 -51.8668 4 
49 -168.66 4 
50 65.5327 4 
51 -4.02835 1 
52 -133.299 4 
53 112.311 4 
54 163.944 1 
55 37.9546 4 
56 -81.4341 4 
57 -104.054 1 
58 132.109 4 
59 12.4081 4 
60 166.598 1 
61 -73.1789 4 
62 48.9844 4 
63 154.931 3 
64 34.4139 4 
65 -86.6065 4 
66 157.246 4 
67 36.2261 4 
68 -82.2368 4 
69 -87.4593 4 
70 151.52 4 
71 33.0574 4 
72 -155.404 1 
73 84.1872 4 
74 -31.8212 4 
75 -161.14 1 
76 -44.0394 4 
77 75.7551 4 
78 -111.397 3 
79 134.689 4 
80 5.06614 4 
81 -99.73 4 
82 130.647 4 
83 14.1835 4 
84 17.4633 4 
85 -112.16 4 
86 131.377 4 
87 -155.956 1 
88 83.2665 4 
89 -36.6255 4 
90 109.396 1 
91 -16.74 4 
92 -135.276 4 
93 -114.741 3 
94 124.35 4 
95 5.08878 4 
96 -127.878 4 
97 112.861 4 
98 -6.96904 4 
99 0.444366 4 
100 -118.817 4 
101 121.353 4 
102 -34.9462 1 
103 87.3498 4 
104 -152.974 4 
105 49.867 2 
106 -70.0663 4 
107 176.35 4 
108 54.3705 4 
109 -59.2132 4 
110 174.304 4 
111 177.513 4 
112 63.9295 4 
113 -62.5536 4 
114 -60.6185 1 
115 66.3966 4 
116 178.254 4 
ITEM: TIMESTEP
25550
ITEM: NUMBER OF ENTRIES
116
ITEM: BOX BOUNDS pp pp pp
-2.2058682000400125e+01 2.2058682000400125e+01
-1.1128071838990754e+01 1.1128071838990754e+01
-1.1128071838990754e+01 1.1128071838990754e+01
ITEM: ENTRIES index c_dphi c_prop
1 134.229 1 
2 -115.413 4 
3 7.20504 4 
4 -102.58 1 
5 139.889 4 
6 28.7006 4 
7 -130.461 1 
8 112.277 4 
9 -11.0271 4 
10 44.2449 4 
11 156.941 4 
12 17.9457 4 
13 -93.0052 4 
14 140.543 4 
15 29.5924 4 
16 -112.681 4 
17 136.368 4 
18 -172.648 1 
19 -52.173 4 
20 69.0194 4 
21 -162.453 3 
22 -156.509 4 
23 87.0474 4 
24 -43.45 4 
25 -37.6185 4 
26 -154.062 4 
27 75.4403 4 
28 84.4886 4 
29 -31.9552 4 
30 152.635 1 
31 -92.2977 4 
32 29.0236 4 
33 -2.61829 3 
34 -113.566 4 
35 129.698 4 
36 -2.26123 4 
37 -118.997 4 
38 108.686 4 
39 115.697 4 
40 -1.03881 4 
41 -133.355 4 
42 168.421 2 
43 44.4109 4 
44 -73.1832 4 
45 169.926 4 
46 52.3321 4 
47 -66.0637 4 
48 -70.4965 4 
49 171.909 4 
50 53.5136 4 
51 26.9279 1 
52 -99.367 4 
53 144.758 4 
54 -172.861 1 
55 66.8695 4 
56 -51.9838 4 
57 -100.599 1 
58 138.541 4 
59 22.3818 4 
60 -179.781 1 
61 -61.66 4 
62 58.1855 4 
63 165.95 3 
64 45.7948 4 
65 -69.6107 4 
66 161.33 4 
67 45.9242 4 
68 -78.515 4 
69 -67.3597 4 
70 177.235 4 
71 52.7955 4 
72 178.107 1 
73 60.7262 4 
74 -62.9615 4 
75 -157.07 1 
76 -36.4761 4 
77 81.7938 4 
78 -94.515 3 
79 141.872 4 
80 31.9435 4 
81 -95.8002 4 
82 154.272 4 
83 27.8132 4 
84 22.2542 4 
85 -87.6739 4 
86 145.868 4 
87 -173.392 1 
88 50.7688 4 
89 -67.0541 4 
90 128.807 1 
91 7.94494 4 
92 -115.326 4 
93 -86.1242 3 
94 153.471 4 
95 37.781 4 
96 -76.0028 4 
97 168.307 4 
98 44.4019 4 
99 45.2697 4 
100 -70.4204 4 
101 165.674 4 
102 -69.6297 1 
103 48.6671 4 
104 166.478 4 
105 72.6161 2 
106 -48.1918 4 
107 -167.605 4 
108 76.7419 4 
109 -42.6712 4 
110 -162.45 4 
111 -165.764 4 
112 74.8229 4 
113 -44.9561 4 
114 -63.96 1 
115 53.6351 4 
116 172.271 4 
ITEM: TIMESTEP
25600
ITEM: NUMBER OF ENTRIES
116
ITEM: BOX BOUNDS pp pp pp
-2.2058682000400125e+01 2.2058682000400125e+01
-1.1128071838990754e+01 1.1128071838990754e+01
-1.1128071838990754e+01 1.1128071838990754e+01
ITEM: ENTRIES index c_dphi c_prop
1 174.112 1 
2 -72.133 4 
3 46.7527 4 
4 -93.3448 1 
5 140.302 4 
6 23.7402 4 
7 -135.195 1 
8 103.221 4 
9 -17.7101 4 
10 28.1915 4 
11 141.112 4 
12 -7.31853 4 
13 -129.484 4 
14 110.974 4 
15 -11.1913 4 
16 -127.341 4 
17 110.494 4 
18 -167.361 1 
19 -48.4159 4 
20 68.5792 4 
21 -165.027 3 
22 -169.281 4 
23 82.4439 4 
24 -42.53 4 
25 -49.3151 4 
26 -157.591 4 
27 77.4355 4 
28 68.2223 4 
29 -40.0531 4 
30 144.393 1 
31 -88.5077 4 
32 26.0712 4 
33 0.0819069 3 
34 -107.802 4 
35 128.793 4 
36 18.0592 4 
37 -105.346 4 
38 125.943 4 
39 130.823 4 
40 7.41858 4 
41 -121.292 4 
42 158.359 2 
43 39.9327 4 
44 -82.6662 4 
45 165.274 4 
46 42.6747 4 
47 -76.3003 4 
48 -74.4747 4 
49 162.926 4 
50 43.9514 4 
51 63.6824 1 
52 -57.8244 4 
53 -179.36 4 
54 -159.972 1 
55 76.9888 4 
56 -42.8709 4 
57 -80.7693 1 
58 159.891 4 
59 36.607 4 
60 -160.141 1 
61 -40.3545 4 
62 79.6119 4 
63 -168.574 3 
64 74.7194 4 
65 -49.2517 4 
66 -160.57 4 
67 75.4585 4 
68 -43.8638 4 
69 -45.3 4 
70 -169.271 4 
71 71.4066 4 
72 166.957 1 
73 42.1175 4 
74 -71.2898 4 
75 -168.131 1 
76 -51.0082 4 
77 69.5015 4 
78 -89.7541 3 
79 160.863 4 
80 31.5353 4 
81 -84.2257 4 
82 146.446 4 
83 25.157 4 
84 39.7294 4 
85 -89.5986 4 
86 149.112 4 
87 171.792 1 
88 39.1724 4 
89 -79.8084 4 
90 131.142 1 
91 18.1613 4 
92 -99.5285 4 
93 -90.1249 3 
94 145.134 4 
95 26.1854 4 
96 -78.4321 4 
97 162.619 4 
98 46.3089 4 
99 41.9428 4 
100 -77.006 4 
101 166.684 4 
102 -82.1984 1 
103 43.1916 4 
104 160.327 4 
105 84.6217 2 
106 -42.7074 4 
107 -159.918 4 
108 72.1049 4 
109 -45.1059 4 
110 -160.566 4 
111 -171.956 4 
112 70.8331 4 
113 -44.6271 4 
114 -15.7923 1 
115 115.787 4 
116 -129.029 4 
ITEM: TIMESTEP
25650
ITEM: NUMBER OF ENTRIES
116
ITEM: BOX BOUNDS pp pp pp
-2.2058682000400125e+01 2.2058682000400125e+01
-1.1128071838990754e+01 1.1128071838990754e+01
-1.1128071838990754e+01 1.1128071838990754e+01
ITEM: ENTRIES index c_dphi c_prop
1 -160.048 1 
2 -40.479 4 
3 73.1875 4 
4 -80.4584 1 
5 166.327 4 
6 41.628 4 
7 -147.083 1 
8 91.0911 4 
9 -31.1777 4 
10 27.1344 4 
11 154.74 4 
12 -24.8621 4 
13 -146.101 4 
14 94.7335 4 
15 -26.5056 4 
16 -146.554 4 
17 92.2065 4 
18 173.264 1 
19 -67.247 4 
20 53.1732 4 
21 -161.661 3 
22 -166.753 4 
23 72.2311 4 
24 -39.8941 4 
25 -46.9386 4 
26 -167.954 4 
27 79.9206 4 
28 71.4798 4 
29 -49.5358 4 
30 147.383 1 
31 -87.127 4 
32 41.5212 4 
33 5.54824 3 
34 -116.245 4 
35 133.379 4 
36 -0.761514 4 
37 -111.138 4 
38 121.031 4 
39 116.31 4 
40 5.93343 4 
41 -121.897 4 
42 165.593 2 
43 47.4295 4 
44 -74.6473 4 
45 161.429 4 
46 39.3518 4 
47 -80.4076 4 
48 -73.9952 4 
49 163.928 4 
50 44.1685 4 
51 80.682 1 
52 -35.7178 4 
53 -163.067 4 
54 -171.032 1 
55 66.6046 4 
56 -48.0055 4 
57 -76.8778 1 
58 160.938 4 
59 44.7417 4 
60 -139.614 1 
61 -22.7995 4 
62 99.8146 4 
63 -139.232 3 
64 97.4147 4 
65 -13.9824 4 
66 -136.805 4 
67 111.798 4 
68 -13.4517 4 
69 -14.3178 4 
70 -125.715 4 
71 109.035 4 
72 163.705 1 
73 39.3758 4 
74 -84.6079 4 
75 173.671 1 
76 -67.6923 4 
77 49.9674 4 
78 -91.3228 3 
79 146.912 4 
80 32.0091 4 
81 -88.161 4 
82 156.936 4 
83 33.6045 4 
84 25.1248 4 
85 -89.7777 4 
86 146.89 4 
87 144.881 1 
88 19.5675 4 
89 -94.006 4 
90 142.191 1 
91 16.1884 4 
92 -106.118 4 
93 -98.4407 3 
94 140.498 4 
95 18.1322 4 
96 -89.8302 4 
97 147.804 4 
98 31.231 4 
99 18.2181 4 
100 -104.148 4 
101 139.279 4 
102 -94.6645 1 
103 25.1727 4 
104 145.129 4 
105 74.0751 2 
106 -47.7884 4 
107 -169.026 4 
108 80.0453 4 
109 -41.1926 4 
110 -158.091 4 
111 -154.922 4 
112 83.8401 4 
113 -33.0585 4 
114 -34.5416 1 
115 85.3148 4 
116 -155.634 4 
ITEM: TIMESTEP
25700
ITEM: NUMBER OF ENTRIES
116
ITEM: BOX BOUNDS pp pp pp
-2.2058682000400125e+01 2.2058682000400125e+01
-1.1128071838990754e+01 1.1128071838990754e+01
-1.1128071838990754e+01 1.1128071838990754e+01
ITEM: ENTRIES index c_dphi c_prop
1 -163.412 1 
2 -50.4311 4 
3 70.9529 4 
4 -84.9595 1 
5 152.393 4 
6 37.3273 4 
7 -151.015 1 
8 84.669 4 
9 -27.6809 4 
10 48.4449 4 
11 163.838 4 
12 -18.5545 4 
13 -134.353 4 
14 99.2401 4 
15 -16.5583 4 
16 -139.981 4 
17 104.221 4 
18 137.944 1 
19 -98.1092 4 
20 21.0557 4 
21 -134.769 3 
22 -142.237 4 
23 110.006 4 
24 -14.4669 4 
25 -21.0783 4 
26 -128.835 4 
27 106.691 4 
28 97.4617 4 
29 -10.2954 4 
30 141.492 1 
31 -90.3931 4 
32 20.3996 4 
33 2.14799 3 
34 -108.968 4 
35 127.226 4 
36 7.79055 4 
37 -116.015 4 
38 118.907 4 
39 133.972 4 
40 10.1661 4 
41 -114.912 4 
42 176.331 2 
43 55.6293 4 
44 -64.4997 4 
45 175.12 4 
46 54.9907 4 
47 -64.1782 4 
48 -58.3902 4 
49 -178.519 4 
50 62.3119 4 
51 117.371 1 
52 2.90343 4 
53 -123.376 4 
54 177.89 1 
55 59.0238 4 
56 -60.9508 4 
57 -78.4716 1 
58 163.128 4 
59 40.9483 4 
60 -159.402 1 
61 -34.3491 4 
62 85.5165 4 
63 -139.031 3 
64 101.395 4 
65 -20.0669 4 
66 -133.282 4 
67 105.257 4 
68 -13.7074 4 
69 -8.41449 4 
70 -129.876 4 
71 111.16 4 
72 167.948 1 
73 40.5525 4 
74 -77.9548 4 
75 164.224 1 
76 -69.9735 4 
77 49.6137 4 
78 -98.2386 3 
79 139.713 4 
80 12.2287 4 
81 -101.787 4 
82 130.729 4 
83 20.2615 4 
84 15.2851 4 
85 -112.199 4 
86 137.333 4 
87 147.136 1 
88 31.1104 4 
89 -98.3042 4 
90 152.008 1 
91 35.7105 4 
92 -84.2464 4 
93 -91.7592 3 
94 144.545 4 
95 31.2361 4 
96 -98.0016 4 
97 148.69 4 
98 25.6945 4 
99 26.1144 4 
100 -87.1942 4 
101 149.811 4 
102 -79.1936 1 
103 44.4988 4 
104 156.005 4 
105 46.5273 2 
106 -80.0226 4 
107 167.025 4 
108 41.0112 4 
109 -71.941 4 
110 167.561 4 
111 155.925 4 
112 42.973 4 
113 -77.5249 4 
114 -43.8502 1 
115 86.3255 4 
116 -166.05 4 
ITEM: TIMESTEP
25750
ITEM: NUMBER OF ENTRIES
116
ITEM: BOX BOUNDS pp pp pp
-2.2058682000400125e+01 2.2058682000400125e+01
-1.1128071838990754e+01 1.1128071838990754e+01
-1.1128071838990754e+01 1.1128071838990754e+01
ITEM: ENTRIES index c_dphi c_prop
1 -169.397 1 
2 -48.9668 4 
3 69.713 4 
4 -89.6594 1 
5 144.631 4 
6 31.1374 4 
7 -149.638 1 
8 99.3114 4 
9 -29.8668 4 
10 37.2697 4 
11 159.22 4 
12 -6.94706 4 
13 -123.326 4 
14 107.196 4 
15 -9.18354 4 
16 -127.703 4 
17 115.918 4 
18 113.319 1 
19 -124.963 4 
20 -9.31686 4 
21 -123.761 3 
22 -125.572 4 
23 116.075 4 
24 -4.6396 4 
25 -0.598983 4 
26 -118.952 4 
27 120.334 4 
28 115.307 4 
29 -3.04607 4 
30 152.517 1 
31 -85.0631 4 
32 31.1835 4 
33 -2.65476 3 
34 -119.388 4 
35 120.724 4 
36 5.75697 4 
37 -114.131 4 
38 122.49 4 
39 114.603 4 
40 -5.28484 4 
41 -128.664 4 
42 -173.195 2 
43 68.8351 4 
44 -49.2631 4 
45 -175.984 4 
46 65.9177 4 
47 -58.0147 4 
48 -50.8312 4 
49 -168.929 4 
50 67.1382 4 
51 -167.839 1 
52 75.1397 4 
53 -54.0512 4 
54 163.612 1 
55 46.7954 4 
56 -80.2193 4 
57 -78.6461 1 
58 162.764 4 
59 43.3714 4 