LAMMPS data file via write_data, version 2 Aug 2023, timestep = 100000, units = real

3150 atoms
9 atom types
2100 bonds
7 bond types
1050 angles
8 angle types
0 dihedrals
4 dihedral types

-33.16966164601066 33.16966164601066 xlo xhi
-11.05655388200343 11.05655388200343 ylo yhi
-11.05655388200343 11.05655388200343 zlo zhi

Masses

1 15.9994
2 12.011
3 1.008
4 1.008
5 12.011
6 15.9994
7 15.9994
8 15.9994
9 1.008

Pair Coeffs # lj/cut/coul/long

1 0.2526 2.8492
2 0.0663 3.5812
3 0.0283 2.3734
4 0 0
5 0.245 2.8114
6 0.1195 3.1
7 0.1195 3.1
8 0.155 3.165
9 0 0

Bond Coeffs # harmonic

1 1109.29 1.12
2 399.792 1.43
3 299.844 1.52
4 400.034 1.53
5 310.707 1.41
6 179.254 0.971
7 529.581 1.012

Angle Coeffs # harmonic

1 47.694 109.5
2 55.1271 109.5
3 47.635 109.6
4 55.1139 111
5 54.9931 110.3
6 180.46 109
7 30.1731 110
8 37.95 113.24

Dihedral Coeffs # harmonic

1 0.3011 1 3
2 1.4149 1 3
3 0.239 -1 3
4 0 1 1

Atoms # full

2821 941 8 -0.82 -30.26322526593147 -6.533842213422846 -3.102506001044624 1 1 0
1159 387 8 -0.82 -30.457857707779656 -4.350361257585306 -0.13551104114833024 0 0 0
1160 387 9 0.41 -31.213758476163456 -4.130577630763682 -0.7994567235079622 0 0 0
3003 1001 9 0.41 -33.06330450990821 -9.477447767715018 -7.525847375602597 1 0 0
288 96 9 0.41 -26.309891936589665 -4.782372171665534 -9.216384166712633 0 0 -1
478 160 8 -0.82 -32.49344187048143 -7.086049204656685 -1.6610520666279438 0 0 0
399 133 9 0.41 -31.521420726827536 -3.8586536940269767 -9.100825585404602 0 1 0
664 222 8 -0.82 -28.584665261112658 -7.395235929585523 -10.097454873684887 0 0 1
2823 941 9 0.41 -30.114877436601542 -5.667550821673054 -3.5928284461513957 1 1 0
2822 941 9 0.41 -29.372511120364766 -7.061116330185329 -3.1029528146282077 1 1 0
665 222 9 0.41 -28.291569572958608 -8.374868569583366 -10.012908692567665 0 0 1
330 110 9 0.41 -27.102604516988702 -7.214879583752219 -2.6937755439915385 0 2 0
2374 792 8 -0.82 -27.156819540432277 -7.575776350431554 -7.330222721665796 1 1 0
666 222 9 0.41 -29.64323536281636 -7.46822261153939 -10.148545250293031 0 0 1
2375 792 9 0.41 -28.01474054444659 -7.751138269026448 -7.820993530765004 1 1 0
2606 869 9 0.41 -29.473137664543795 -8.819191436970945 -5.0096306778857125 1 2 -1
329 110 9 0.41 -27.113865611094486 -8.46545626905688 -3.7596909536148093 0 2 0
328 110 8 -0.82 -27.731166020454307 -7.87455474394701 -3.156489724477596 0 2 0
2232 744 9 0.41 -25.083700560489568 -7.110166617034391 -9.760445400610648 1 0 1
2376 792 9 0.41 -26.556834268380026 -6.9944732061293875 -7.895599098706678 1 1 0
2255 752 9 0.41 -27.148030685378632 -5.872447230943514 -6.182073978273232 0 0 0
2741 914 9 0.41 -25.430587488403667 -9.295507895383578 -5.425551145558129 1 0 0
2231 744 9 0.41 -26.72402492657953 -6.766259508877197 -10.008742323519204 1 0 1
2740 914 8 -0.82 -26.422690833906625 -9.597460914986812 -5.433055068816861 1 0 0
2254 752 8 -0.82 -26.923973736650588 -5.14033839394006 -5.505330874592256 0 0 0
2256 752 9 0.41 -27.325923723872535 -5.361605007964692 -4.568202465491023 0 0 0
2230 744 8 -0.82 -25.86831654182294 -6.5016847666472435 -9.48450375906919 1 0 1
2603 868 9 0.41 -28.541390540107287 -8.920628858260878 -1.97438272045056 1 0 -1
1444 482 8 -0.82 -25.478898922147167 -10.201106019672865 -0.8027684609531196 0 1 1
2672 891 9 0.41 -24.97779223481451 -10.55698312744737 -9.523066387419373 1 1 0
1445 482 9 0.41 -24.967500517686126 -9.960192865129493 -1.6767488634695784 0 1 1
2605 869 8 -0.82 -30.063603739263346 -9.135260453446763 -5.767821630416504 1 2 -1
2607 869 9 0.41 -31.027406108147414 -9.203261163081473 -5.504286188141185 1 2 -1
2602 868 8 -0.82 -29.113205464049365 -9.566375707380349 -1.4513326371156658 1 0 -1
1446 482 9 0.41 -25.272324579641037 -9.550483077201697 -0.0211345041215516 0 1 1
2742 914 9 0.41 -26.989394728232472 -9.058054542448932 -6.135857327001651 1 0 0
3005 1002 9 0.41 -30.606155836605623 -9.83263225430298 -1.3373729888624446 1 0 0
397 133 8 -0.82 -31.14817440927029 -4.7184051726565075 -9.439045734033446 0 1 0
286 96 8 -0.82 -26.013419865979778 -3.776188616246733 -9.348067194467301 0 0 -1
2604 868 9 0.41 -28.675247077150004 -10.47305916065627 -1.3356987397913453 1 0 -1
287 96 9 0.41 -25.20321253038646 -3.8234170309642 -9.976895967651412 0 0 -1
3004 1002 8 -0.82 -31.60819707062402 -9.817283286167578 -1.6114664403358177 1 0 0
3087 1029 9 0.41 -27.24572709342603 -10.692691082797792 -9.344188302745302 1 0 0
398 133 9 0.41 -31.56415948853842 -5.459101432012249 -8.851165782093048 0 1 0
549 183 9 0.41 -28.782806650675195 -10.835205525507252 -10.396576721561306 0 1 1
2878 960 8 -0.82 -31.486483412880386 -8.322513934304082 -10.843570607727905 1 -1 0
480 160 9 0.41 -31.563935493959022 -6.914260155543981 -2.0934633678634604 0 0 0
1230 410 9 0.41 -26.757585016870774 -4.7499927487674904 -2.27499830182348 0 0 0
1229 410 9 0.41 -28.28931051830717 -4.798956698790708 -2.2041341835231467 0 0 0
1517 506 9 0.41 -25.280798742984565 -5.380702584502097 -5.882441330675603 0 1 1
1228 410 8 -0.82 -27.55530221249514 -5.112229812917538 -2.857308018338845 0 0 0
1161 387 9 0.41 -29.581379575774427 -4.00267738296489 -0.5079575796895224 0 0 0
3001 1001 8 -0.82 -32.58639383737174 -10.073670178493353 -8.198605997946908 1 0 0
1450 484 8 -0.82 -24.886053425864603 -4.4263615146824575 -1.4128239649595145 0 0 0
479 160 9 0.41 -33.16138291818785 -7.0790825821415675 -2.4264844174554376 0 0 0
393 131 9 0.41 -27.246662893601567 -11.040318894291417 -4.763357858055633 0 1 0
3006 1002 9 0.41 -31.947123770789165 -8.86346210783799 -1.5411566668046959 1 0 0
476 159 9 0.41 -32.31132567836872 -10.605688313175081 -3.2572314505659987 0 1 0
3085 1029 8 -0.82 -28.1236748688122 -10.217713235085894 -9.086575291364447 1 0 0
475 159 8 -0.82 -32.381845537952884 -10.592570964211175 -4.305362150964203 0 1 0
3086 1029 9 0.41 -28.232613331848476 -10.300664156135294 -8.046748733966805 1 0 0
2261 754 9 0.41 -31.599293534512505 -10.950063924958492 -9.069501259248447 1 0 0
1241 414 9 0.41 -17.500414604814033 -4.386656801496421 -7.05910105540394 0 0 1
331 111 8 -0.82 -23.24897929236618 -4.791840049505743 -8.381864449685615 0 0 0
332 111 9 0.41 -23.24624263998027 -3.7098272936658088 -8.334791079666601 0 0 0
333 111 9 0.41 -23.384433385382128 -5.027009791965488 -9.379340619818326 0 0 0
376 126 8 -0.82 -23.741847195654813 -9.461106583017214 -8.653642479128285 0 1 0
536 179 9 0.41 -17.796982780422333 -6.61103441021113 -6.068361089218774 0 1 0
298 100 8 -0.82 -23.266656323916834 -7.245494011256976 -10.122162279173612 0 1 0
299 100 9 0.41 -23.351487241899804 -8.231490555245044 -9.984182539446836 0 1 0
292 98 8 -0.82 -17.177830437006094 -4.867492231012321 -10.481631406159261 0 0 0
880 294 8 -0.82 -23.813208037823657 -8.63954865061861 -6.042266919464302 0 1 0
425 142 9 0.41 -20.299692632050117 -10.014916502139092 -2.44733674422303 0 0 -1
881 294 9 0.41 -24.322280140578357 -7.702178651107683 -6.146865306453059 0 1 0
882 294 9 0.41 -22.897597794138928 -8.331851839600212 -5.680190025572604 0 1 0
378 126 9 0.41 -23.72889823977591 -9.432285815511852 -7.621187524427599 0 1 0
9 3 9 0.41 -20.617477219254077 -11.046284226842102 -4.643977087430633 0 0 -1
2961 987 9 0.41 -20.937130885236968 -7.929541235453774 -6.727328841753241 1 1 0
7 3 8 -0.82 -21.15923905352489 -10.306417266284287 -4.116202751011727 0 0 -1
8 3 9 0.41 -21.127490223027657 -9.558107872828723 -4.7678782572148135 0 0 -1
2985 995 9 0.41 -16.825862286516884 -8.51689806818363 -1.2642384570123664 1 0 0
752 251 9 0.41 -19.154577067291278 -5.141774706149326 -5.176430436728941 0 0 1
1516 506 8 -0.82 -24.388270194098112 -5.890109392843801 -6.045649989124422 0 1 1
2277 759 9 0.41 -20.118916865357797 -8.08825366532841 -9.000602924285046 0 -1 1
2959 987 8 -0.82 -21.206094831088663 -8.0650550501522 -5.691274813873353 1 1 0
2275 759 8 -0.82 -20.717771312365734 -7.455473734413845 -8.46370229511402 0 -1 1
2960 987 9 0.41 -20.615169198906294 -7.449393418956504 -5.135968871227312 1 1 0
751 251 8 -0.82 -18.612574385691985 -5.37035555018464 -6.052520085069805 0 0 1
753 251 9 0.41 -19.19291322935812 -5.170478332096917 -6.8740289023314265 0 0 1
2668 890 8 -0.82 -20.339806633302985 -5.4767700429473285 -3.8592237692413764 1 0 1
2669 890 9 0.41 -20.793831047599543 -5.428310028289198 -2.967899601992807 1 0 1
2276 759 9 0.41 -21.70197034093534 -7.425191264385998 -8.645954447462103 0 -1 1
650 217 9 0.41 -22.775377525102048 -9.869417440559852 -3.572606034750149 0 0 0
673 225 8 -0.82 -19.912946343307638 -4.932994151503824 -8.552364516516048 0 1 1
1544 515 9 0.41 -21.982233565333203 -4.051205380654154 -6.3472155867039985 0 -1 1
1734 578 9 0.41 -22.815669586453346 -5.881841731427183 -2.594795053558423 0 0 -1
920 307 9 0.41 -23.83170323015468 -8.072530280170604 -3.288810395329217 0 0 0
1732 578 8 -0.82 -22.226172553213637 -5.374788769626057 -1.91209642245469 0 0 -1
675 225 9 0.41 -20.62453350255543 -4.383161958939615 -9.082328491537071 0 1 1
919 307 8 -0.82 -23.7198515960673 -7.110914857061849 -3.5901468557260854 0 0 0
921 307 9 0.41 -24.117892270455773 -6.793231991699752 -4.494206476626002 0 0 0
450 150 9 0.41 -18.68195031584351 -10.281266102978947 -6.092232596300741 0 1 0
1518 506 9 0.41 -23.975261464969044 -5.488292909360248 -6.909235565301995 0 1 1
1266 422 9 0.41 -21.440211994848728 -3.9567022445068085 -1.31110079398389 0 0 1
674 225 9 0.41 -20.37162120696547 -5.8684422065188695 -8.526697797454885 0 1 1
377 126 9 0.41 -23.08946634411552 -10.178280827428065 -8.992799469168116 0 1 0
448 150 8 -0.82 -18.13751221204067 -9.597784860059523 -5.559035054342761 0 1 0
2670 890 9 0.41 -20.92883210543273 -4.869878425764837 -4.463649155450716 1 0 1
197 66 9 0.41 -17.28546099596934 -5.707246760782304 -1.4182762803396791 0 0 -1
1543 515 8 -0.82 -21.866802325796634 -3.7481119413172586 -5.381513891074056 0 -1 1
1452 484 9 0.41 -23.885865715253576 -4.435166064248216 -1.6313612610263295 0 0 0
196 66 8 -0.82 -17.292322190699522 -5.818113472355345 -2.424991884193096 0 0 -1
449 150 9 0.41 -17.671423608038417 -10.040571036369736 -4.780176587122632 0 1 0
424 142 8 -0.82 -20.013606799585975 -10.425188730681565 -1.584845440553602 0 0 -1
537 179 9 0.41 -17.448425407931808 -8.283917898946704 -5.839582210870198 0 1 0
198 66 9 0.41 -18.220605009679666 -5.590626322405387 -2.7334888566436106 0 0 -1
293 98 9 0.41 -18.010602257603352 -5.260638959704486 -10.030185029924908 0 0 0
1435 479 8 -0.82 -20.71613873691534 -7.5729114970472375 -1.260450105567534 0 0 1
1733 578 9 0.41 -21.640620421236065 -6.112454346753563 -1.4366055399550035 0 0 -1
1437 479 9 0.41 -21.310047486158012 -8.050460067289604 -0.5905361831797222 0 0 1
2984 995 9 0.41 -16.954701276127793 -7.628087811418585 -2.6338797753791354 1 0 0
183 61 9 0.41 -22.266282344410435 -3.747694998082433 -10.733442427468246 0 1 0
420 140 9 0.41 -18.897958596584182 -9.415152629468718 -10.989167538306074 0 0 0
162 54 9 0.41 -17.99482889457729 -4.248266199446486 -0.38029029626161837 0 0 0
651 217 9 0.41 -23.24049418865615 -10.951703542248556 -2.3975405578119116 0 0 0
2983 995 8 -0.82 -16.65693489801975 -8.519339018313461 -2.2804936200403247 1 0 0
1537 513 8 -0.82 -23.51582282189959 -7.83877529188052 -0.333486675562213 0 1 0
535 179 8 -0.82 -17.141992933713123 -7.402813254007137 -6.296709998725058 0 1 0
418 140 8 -0.82 -18.922478901836424 -8.896812420042416 -10.144085717780573 0 0 0
1539 513 9 0.41 -23.668240783844336 -8.023445420883144 -1.3329329822269678 0 1 0
1436 479 9 0.41 -20.066253509414686 -8.302471457557335 -1.5853267000267035 0 0 1
419 140 9 0.41 -18.078963237065082 -8.325813054708725 -10.132777498072667 0 0 0
649 217 8 -0.82 -23.480823890026567 -10.048500154320344 -2.8508258949542817 0 0 0
797 266 9 0.41 -25.202176230467053 -0.9665444243261252 -10.72539863644997 0 0 0
144 48 9 0.41 -27.478717943620648 -3.1847447280341434 -5.741895614316555 0 -1 1
138 46 9 0.41 -32.51959548534543 -1.5781518417189364 -8.716146963561888 0 0 -1
3114 1038 9 0.41 -29.57377256981424 -3.551492390563216 -10.203046711793885 1 0 1
4 2 8 -0.82 -33.11210236458444 -0.7020126085920815 -3.6224994277769333 0 0 0
71 24 9 0.41 -26.577171188999127 2.1088524280635 -10.827704010256427 0 -1 0
2825 942 9 0.41 -29.508584724568422 0.46653402752794904 -10.510613016356531 1 0 0
798 266 9 0.41 -25.85019878481144 -0.18365231228283108 -9.411897299092297 0 0 0
136 46 8 -0.82 -32.06427573353145 -2.428627181000623 -8.306628689123631 0 0 -1
137 46 9 0.41 -31.629594944225573 -2.2377177153854415 -7.387703399033704 0 0 -1
2651 884 9 0.41 -30.084019647389077 -0.03246222943455379 -8.286704736123161 1 1 1
72 24 9 0.41 -25.44550895363052 3.149040325557044 -10.230301451577015 0 -1 0
1387 463 8 -0.82 -32.80443811238945 -3.182594800521376 -1.67944181888166 0 0 0
2650 884 8 -0.82 -29.2956073406034 -0.30117827583050527 -8.882443998453116 1 1 1
273 91 9 0.41 -26.84422766915563 -1.7707596050369077 -7.079075204856291 0 -1 0
271 91 8 -0.82 -25.97527818519565 -1.7360058639286375 -7.649901543416222 0 -1 0
142 48 8 -0.82 -28.129260563500395 -2.418926672470848 -5.8457244317393755 0 -1 1
272 91 9 0.41 -26.03039424291276 -2.46401055260049 -8.426962811235699 0 -1 0
1451 484 9 0.41 -25.2061168810014 -3.5063127897731565 -1.8596271414171763 0 0 0
2639 880 9 0.41 -32.712554203231335 0.30316031434936086 -7.103956589158092 1 1 0
143 48 9 0.41 -29.081010278687252 -2.768864035358124 -5.983821784675119 0 -1 1
323 108 9 0.41 -27.279345992709057 -2.7066511245027502 -1.2537287441823413 0 0 1
322 108 8 -0.82 -27.934148335177678 -3.1558397119773973 -0.6372334590808624 0 0 1
1992 664 9 0.41 -31.4553552824447 -0.47927747881710303 -3.1153059842645208 1 0 1
659 220 9 0.41 -31.166155508334267 -1.4148579664668741 -5.066805074073396 0 1 0
660 220 9 0.41 -31.768128660946157 -2.923653065593804 -5.232523198118283 0 1 0
658 220 8 -0.82 -31.154275328810055 -2.2422563441023193 -5.665658651124532 0 1 0
740 247 9 0.41 -29.56806151859086 0.7977563121624591 -6.2675561406147065 0 1 0
739 247 8 -0.82 -30.54796703705911 0.5856889984004763 -6.448109555158459 0 1 0
741 247 9 0.41 -31.06492815582556 1.5105897756252435 -6.503611040317405 0 1 0
70 24 8 -0.82 -26.42179218798887 3.0805154411418663 -10.536094607006063 0 -1 0
610 204 8 -0.82 -27.730258426777947 0.07818238613199568 -4.249791339688976 0 0 0
611 204 9 0.41 -27.448144166547664 -0.33361687421842845 -3.3483642015191712 0 0 0
612 204 9 0.41 -27.836052201193855 -0.7430807648795295 -4.848191314173363 0 0 0
2587 863 8 -0.82 -27.36026246824746 1.6163532549233413 -7.923878356365904 1 0 0
2588 863 9 0.41 -26.78086024265479 1.8222122875024684 -7.122909421290645 1 0 0
1990 664 8 -0.82 -30.641190772205626 0.049563167122961715 -2.770264382692371 1 0 1
264 88 9 0.41 -26.850145916344058 1.4206144923498396 -4.831659267414389 0 -1 0
262 88 8 -0.82 -26.06165305366269 2.012233014143453 -5.099569567925972 0 -1 0
263 88 9 0.41 -25.203098292944556 2.0062196545873334 -4.515272800874674 0 -1 0
133 45 8 -0.82 -31.53054284876118 3.0478595435953224 -6.006803152651835 0 0 0
1991 664 9 0.41 -30.06054869374191 0.21905283798934505 -3.5794865230999893 1 0 1
941 314 9 0.41 -32.48243300851428 2.9656574760317564 -4.275700765941276 0 0 0
188 63 9 0.41 -30.15516540806725 0.6255035322392892 -1.0353374209411221 0 0 0
140 47 9 0.41 -25.60329800949707 -1.536068825689087 -1.5084788315832327 0 0 0
139 47 8 -0.82 -25.763123030849847 -2.236639205295125 -2.310234338672135 0 0 0
2589 863 9 0.41 -27.62411025994047 2.3843766173059127 -8.564514781169045 1 0 0
2652 884 9 0.41 -28.44911886658889 0.25774811930540587 -8.803265426949359 1 1 1
134 45 9 0.41 -30.585707512587984 3.1367736564297406 -5.632128054643777 0 0 0
587 196 9 0.41 -29.469879931575523 3.6806494647318697 -3.656623545378033 0 0 1
586 196 8 -0.82 -29.421336362409015 3.0856835661656685 -4.518463361696347 0 0 1
588 196 9 0.41 -28.427182689121857 2.9767434444233043 -4.739777013434903 0 0 1
345 115 9 0.41 -32.107015695405295 3.0976089191984464 -9.63469407962021 0 1 -1
1388 463 9 0.41 -32.62486017975993 -2.5080395405324047 -2.4054899315461 0 0 0
3115 1039 8 -0.82 -24.98114488726526 -0.450207187765745 -0.3221753398956757 1 0 1
343 115 8 -0.82 -33.003643674561495 2.941536168126767 -9.204341445927483 0 1 -1
141 47 9 0.41 -25.103953085167678 -1.9547694118452483 -3.0205663698339986 0 0 0
3113 1038 9 0.41 -28.968059960604453 -2.051020290702457 -9.573532025131504 1 0 1
3112 1038 8 -0.82 -28.90348916734226 -2.7929518621254648 -10.287498674500275 1 0 1
119 40 9 0.41 -27.43275271894682 2.9139724777914893 -1.0227816381183885 0 -1 0
120 40 9 0.41 -27.61642741170624 2.022373703465524 -2.253441343625756 0 -1 0
118 40 8 -0.82 -26.990614073625515 2.6791472998656793 -1.8800583071149148 0 -1 0
291 97 9 0.41 -25.543504622912767 3.446822792853 -2.5600635503293336 0 0 0
796 266 8 -0.82 -25.80820127553853 -0.19087411970189017 -10.439170841410865 0 0 0
187 63 8 -0.82 -29.88904085127481 1.0065734321548963 -0.07349130499153489 0 0 0
891 297 9 0.41 -17.822887046630065 -3.167759872101243 -10.934532221918435 0 1 1
314 105 9 0.41 -16.801107965530278 3.5223918749196717 -10.34347441207862 0 0 0
360 120 9 0.41 -17.098508299715352 0.9552787258790687 -5.514074826736384 0 0 0
182 61 9 0.41 -21.23424553796775 -2.36549400435492 -10.868696005963779 0 1 0
172 58 8 -0.82 -17.37178425763215 -1.8209975732772623 -3.834146763772747 0 -1 0
358 120 8 -0.82 -16.90031355998538 1.2170198620658503 -4.529957052133712 0 0 0
1113 371 9 0.41 -17.600073998397534 -1.567757712533071 -6.881772303111181 0 -1 0
1531 511 8 -0.82 -22.20463843730972 0.38825191118243474 -8.431238780467348 0 1 1
1242 414 9 0.41 -17.561701672361878 -3.415256827495245 -8.38581178365898 0 0 1
1532 511 9 0.41 -21.484336693665036 0.2748362084057927 -9.11863739210971 0 1 1
1008 336 9 0.41 -22.625468814591436 1.1940805713643545 -4.912260081971171 0 0 0
3116 1039 9 0.41 -24.36357855878346 0.31470029943765 -0.638346379309727 1 0 1
1079 360 9 0.41 -22.553300104349436 -1.4054207370633076 -8.02769371234484 0 0 0
23 8 9 0.41 -20.958973061076463 1.5423250635695034 -0.4009434852063283 0 1 1
1533 511 9 0.41 -22.628592477039874 1.2996362673257504 -8.606512791813373 0 1 1
562 188 8 -0.82 -19.934805929067434 1.4819802284472683 -9.81666284810403 0 -1 1
223 75 8 -0.82 -23.23825001485568 3.268704623102858 -9.277248748713555 0 0 -1
1006 336 8 -0.82 -23.421104902027423 1.5668472071080988 -4.38840656795134 0 0 0
1007 336 9 0.41 -23.384960260001158 2.5638639183413527 -4.244353842233584 0 0 0
2415 805 9 0.41 -20.56110718927971 1.2776384624995742 -6.165596715780848 1 0 0
1078 360 8 -0.82 -23.228691410267245 -2.1762488913508857 -8.086874280026493 0 0 0
2897 966 9 0.41 -22.659774473530664 1.3706625134027757 -1.6721313253082464 1 -1 0
720 240 9 0.41 -16.71808457046575 0.2407164129518904 -10.370009995051209 0 -1 1
2204 735 9 0.41 -24.057739053576235 -1.1251681489193608 -4.997397112671504 0 0 0
1269 423 9 0.41 -19.4261049614079 -3.1087109554742005 -1.4672861326405897 0 0 1
22 8 8 -0.82 -20.80531292145874 1.0550653731063981 -1.2874087060121795 0 1 1
2205 735 9 0.41 -22.935369789394024 -1.1730634880364743 -3.827473575072619 0 0 0
24 8 9 0.41 -19.8418067516692 1.2846656207857077 -1.5046074351032601 0 1 1
2413 805 8 -0.82 -20.616903377499582 0.8108213565010214 -5.232079198504838 1 0 0
2555 852 9 0.41 -20.370158913424127 -2.70799764639254 -5.2212074380083715 1 0 1
2203 735 8 -0.82 -23.71833580763698 -1.7062305832947278 -4.220467609902427 0 0 0
2414 805 9 0.41 -20.00729920561343 1.3963538046773891 -4.659106175364911 1 0 0
2554 852 8 -0.82 -19.560726219547337 -2.125655980204268 -5.404034441347285 1 0 1
1265 422 9 0.41 -21.583814066431497 -2.2491347878149988 -1.6626563878347937 0 0 1
154 52 8 -0.82 -21.412196323270237 -0.701668722755544 -3.1575523524325373 0 0 0
359 120 9 0.41 -17.7237759647777 1.7512977924162954 -4.1981169549729875 0 0 0
155 52 9 0.41 -21.009122725067087 -0.3927294976019855 -4.034955972015422 0 0 0
174 58 9 0.41 -18.269334566016436 -1.8868120322094661 -4.388011994484761 0 -1 0
3091 1031 8 -0.82 -19.00661054074414 2.451511042202231 -3.6352317368629707 1 0 0
156 52 9 0.41 -20.96499812121887 -0.13576017309351052 -2.3924971659642402 0 0 0
2556 852 9 0.41 -19.916991868901846 -1.2816482094661446 -5.869541002971079 1 0 1
1545 515 9 0.41 -22.814885959192615 -3.4625349055553807 -5.0647309908060745 0 -1 1
3092 1031 9 0.41 -19.30803251941979 3.4121205881225407 -3.805822538334721 1 0 0
1264 422 8 -0.82 -21.094820539647333 -2.997937898463462 -1.1127166830786326 0 0 1
3093 1031 9 0.41 -18.6507317061043 2.5923783025936924 -2.7000555865783067 1 0 0
564 188 9 0.41 -18.993172479266807 1.0320696105068699 -9.949974263281533 0 -1 1
1300 434 8 -0.82 -20.030181394007005 2.5757305597314186 -7.255970970287735 0 0 0
1048 350 8 -0.82 -17.95483640700995 2.07801892733438 -1.0301143141934581 0 0 0
1268 423 9 0.41 -18.032380391346802 -2.374972687074667 -2.2509085742086814 0 0 1
1267 423 8 -0.82 -18.393642429602775 -3.0539038711844686 -1.5427260477579505 0 0 1
1301 434 9 0.41 -20.02062044662445 2.2327070287189166 -8.212507535058439 0 0 0
181 61 8 -0.82 -21.309319833769628 -3.350577189478085 -10.563855293181085 0 1 0
1302 434 9 0.41 -20.29773295519712 3.5575922960543114 -7.214338289952832 0 0 0
1050 350 9 0.41 -16.958669369667717 2.012777890644399 -1.334052867930172 0 0 0
1080 360 9 0.41 -24.202090011041776 -1.8399833283336982 -8.131920658412977 0 0 0
2898 966 9 0.41 -24.135592078463173 2.18992021763291 -1.6299509103258636 1 -1 0
2896 966 8 -0.82 -23.486699419883482 1.6012073328181078 -1.087515720838157 1 -1 0
563 188 9 0.41 -19.8690778601661 2.29380170554235 -10.459443372368488 0 -1 1
289 97 8 -0.82 -24.55990864889445 3.6343913480943204 -2.8020221388079687 0 0 0
718 240 8 -0.82 -17.579436659062015 -0.18094273999396115 -10.03510330450137 0 -1 1
1111 371 8 -0.82 -17.269856928632613 -0.6353027051963291 -6.963534264532943 0 -1 0
173 58 9 0.41 -16.912955464818786 -0.9548499565708415 -3.975756453829364 0 -1 0
719 240 9 0.41 -17.803656976183788 -1.0844270705222314 -10.510417956401843 0 -1 1
225 75 9 0.41 -23.155239467393553 3.085154241763732 -10.267953573220122 0 0 -1
1112 371 9 0.41 -17.094350841711613 -0.5464610996297719 -7.966229520353116 0 -1 0
1240 414 8 -0.82 -17.004959176655635 -3.6474633459073376 -7.5599333396403585 0 0 1
800 267 9 0.41 -18.111772711241482 3.157320416231565 -6.921247560125701 0 0 0
576 192 9 0.41 -19.187728157196368 -1.984192343588024 -0.10468320323997915 0 0 0
2739 913 9 0.41 -20.65023754732719 0.14323917845973533 -11.036183741647394 1 0 2
51 17 9 0.41 -27.605669034083633 4.059813189203256 -9.885642941346783 0 -1 0
227 76 9 0.41 -32.87397397150701 8.773311254023715 -2.1232813618816326 0 0 0
2500 834 8 -0.82 -32.78386772949022 9.683732080348753 -0.6903256576352064 1 -1 0
2260 754 8 -0.82 -31.39827769877342 10.378398061070575 -9.737804191723434 1 -1 0
2980 994 8 -0.82 -30.969081745002438 4.355217764141196 -10.604846931332954 1 -1 0
2671 891 8 -0.82 -25.60073165152896 10.854783631852198 -9.883815781608043 1 0 0
2501 834 9 0.41 -32.34175360173428 10.512356899479888 -1.102918775818031 1 -1 0
2982 994 9 0.41 -30.17978234152375 4.363500099012299 -9.97006268506313 1 -1 0
135 45 9 0.41 -31.915936058047734 3.942339780478271 -6.218656610095655 0 0 0
226 76 8 -0.82 -33.13310264018146 8.234471772768755 -2.971456794128068 0 0 0
634 212 8 -0.82 -25.94948136673301 4.491083500341693 -7.3718774852627185 0 0 0
636 212 9 0.41 -25.750875302548536 3.9068077301906214 -6.578482696403933 0 0 0
635 212 9 0.41 -25.404909730322263 5.372529327463324 -7.272358145972138 0 0 0
50 17 9 0.41 -27.726661872781374 4.461114883948321 -8.359339570452592 0 -1 0
1208 403 9 0.41 -29.924470556421415 4.557322328650859 -1.3917187893293033 0 0 0
2424 808 9 0.41 -29.352886882604384 8.93479187028794 -0.5234870954128397 1 0 0
391 131 8 -0.82 -27.93372175585649 10.38476873518483 -4.458603037963268 0 0 0
49 17 8 -0.82 -28.27741870888765 4.482349111858628 -9.20830720385271 0 -1 0
1122 374 9 0.41 -29.539560071936908 10.1032324396084 -5.171425279437298 0 -1 0
1121 374 9 0.41 -31.02564343205707 10.518357424220424 -5.1794444490912 0 -1 0
392 131 9 0.41 -27.801480359064193 10.387495015305769 -3.4104587896586462 0 0 0
477 159 9 0.41 -32.76734945485682 10.604449823277664 -4.493553245325726 0 0 0
2936 979 9 0.41 -27.75084005714184 7.576871506507404 -10.001816284286006 1 0 1
122 41 9 0.41 -30.264949822517107 8.19879513880831 -3.996019890882881 0 -1 0
1120 374 8 -0.82 -30.462792555841066 9.699683059912536 -5.001489491599096 0 -1 0
3075 1025 9 0.41 -30.67573082206978 8.748812189716878 -6.722225800268038 1 -1 1
2423 808 9 0.41 -29.357573927395578 7.816259690757368 -1.7886941207059888 1 0 0
2262 754 9 0.41 -31.112235236303533 9.583395777691598 -9.109376226819682 1 -1 0
123 41 9 0.41 -31.4412023482241 7.36701931705065 -3.5686631623432152 0 -1 0
2853 951 9 0.41 -27.68499516691907 7.573911908225108 -3.656651872868391 1 -1 0
2446 816 8 -0.82 -25.729734285228332 7.7040330548800835 -9.670213563500305 1 0 0
1207 403 8 -0.82 -29.782850768860815 4.82988670204559 -2.439370863490721 0 0 0
2851 951 8 -0.82 -26.7659171588735 7.9302070286267305 -3.9104625473922017 1 -1 0
2852 951 9 0.41 -26.933100204869408 8.696514329392906 -4.602807516700204 1 -1 0
3073 1025 8 -0.82 -30.59250379785477 8.741686835288595 -7.727489908239365 1 -1 1
3074 1025 9 0.41 -29.738766455914764 8.35511465323953 -8.069167318334793 1 -1 1
1087 363 8 -0.82 -27.380256133981018 10.215838882956335 -1.8363319773595759 0 0 -1
1088 363 9 0.41 -26.733761376721503 10.984110797403124 -1.4979385465719606 0 0 -1
1089 363 9 0.41 -26.923395854049467 9.304514739410953 -1.6352216375054898 0 0 -1
2448 816 9 0.41 -25.12356663037749 7.127107982879762 -9.059048619701711 1 0 0
1209 403 9 0.41 -30.286534219788663 5.6778110745981625 -2.730246595263605 0 0 0
2447 816 9 0.41 -25.622652401338748 8.720657827912339 -9.492091967771296 1 0 0
121 41 8 -0.82 -30.431353095076176 7.345933147214501 -3.4515815349689722 0 -1 0
2935 979 8 -0.82 -28.319721108850775 7.352531755503248 -10.804376856571313 1 0 1
2937 979 9 0.41 -28.913644243646157 6.500744656915023 -10.709292792391736 1 0 1
2422 808 8 -0.82 -29.282089177916014 7.936211255844219 -0.7674299145001484 1 0 0
680 227 9 0.41 -25.178993765723114 7.441208371645571 -3.6993205856607876 0 -1 0
778 260 8 -0.82 -25.357645834141213 5.043951002971484 -0.30955367288400204 0 -1 0
780 260 9 0.41 -25.264528011554773 5.796877182755486 -0.9971147507997973 0 -1 0
2673 891 9 0.41 -25.68178883573279 11.031052776014489 -10.915413159497179 1 0 0
2813 938 9 0.41 -32.86513901167217 8.682465681476875 -10.813499800479685 1 0 1
606 202 9 0.41 -17.620283894158085 5.21027928776598 -4.168778775342673 0 0 0
801 267 9 0.41 -16.800313618561546 3.870411631707544 -7.6924734186177375 0 0 0
1294 432 8 -0.82 -19.384796292831084 8.343994163874504 -5.443160614362486 0 0 1
604 202 8 -0.82 -17.7879755292494 5.648515408431402 -5.0583755083410065 0 0 0
437 146 9 0.41 -19.66758556988293 6.479645260709651 -9.60818941047447 0 0 0
308 103 9 0.41 -22.53261899814809 8.980221342137094 -1.7554376201937778 0 -1 0
355 119 8 -0.82 -22.631661356832367 5.826465221962708 -5.0174819714693975 0 0 0
2367 789 9 0.41 -19.335920553703062 5.629387144519038 -4.220734273587878 1 -1 0
1105 369 8 -0.82 -18.80550664831215 9.176209786331137 -2.7970452590725685 0 0 1
533 178 9 0.41 -18.47883472847529 5.265693915495573 -1.4548473483051296 0 0 0
1106 369 9 0.41 -17.908482617548657 8.890586034910436 -2.3715076750796182 0 0 1
1107 369 9 0.41 -19.088487409026413 9.925586170108007 -2.2211878882469502 0 0 1
426 142 9 0.41 -20.670339330235905 10.877344805435849 -1.4891175669010615 0 -1 -1
380 127 9 0.41 -16.804752196850337 8.136648803032072 -10.42897332595789 0 -1 0
375 125 9 0.41 -19.549510928509445 8.678847478580293 -9.104972774347319 0 -1 -1
381 127 9 0.41 -17.30965423212535 7.117528889968055 -9.300964547503021 0 -1 0
784 262 8 -0.82 -23.253665672092087 6.090866484071936 -10.80720442714105 0 0 0
2365 789 8 -0.82 -20.26084602675827 5.522938454202263 -3.7879793906062256 1 -1 0
681 227 9 0.41 -23.826686774802194 7.682002169769136 -2.828784173338585 0 -1 0
1295 432 9 0.41 -19.292302495981385 8.657012957194395 -4.470782177417779 0 0 1
224 75 9 0.41 -23.584272092183795 4.255064393723774 -9.242207198195475 0 0 -1
214 72 8 -0.82 -22.30349523359006 10.281145936530402 -10.073390735613563 0 0 1
356 119 9 0.41 -23.42770092020752 6.082233782221822 -4.421414826236831 0 0 0
679 227 8 -0.82 -24.37533542955235 6.942027748257393 -3.298458669739274 0 -1 0
534 178 9 0.41 -16.838327644262698 5.617640802381976 -1.651237903541718 0 0 0
2758 920 8 -0.82 -21.586051767720164 4.902151227360777 -7.377212252935502 1 0 0
2760 920 9 0.41 -22.22312157654258 4.326933027913416 -7.921127841034307 1 0 0
290 97 9 0.41 -24.34415750898041 4.579980459477184 -2.421281738563115 0 0 0
1133 378 9 0.41 -16.8347762070352 10.124848460496471 -8.995845538875106 0 -1 0
216 72 9 0.41 -21.24826095889034 10.214948922907189 -10.148896891367164 0 0 1
555 185 9 0.41 -21.061101322609247 7.307294678405844 -2.659151308926493 0 0 0
943 315 8 -0.82 -16.639117293913106 9.138765265217144 -0.8322244141062889 0 -1 0
1017 339 9 0.41 -21.289767957253133 4.424856082404899 -0.712823471065203 0 1 -1
605 202 9 0.41 -17.619997212112605 4.9104035706597795 -5.792963048453182 0 0 0
1015 339 8 -0.82 -20.442979348728223 4.9115078251347395 -1.060153813097795 0 1 -1
36 12 9 0.41 -23.363788810865383 6.594481806801221 -6.385630213116508 0 0 0
34 12 8 -0.82 -24.10634830086392 6.590837975691054 -7.107076752200204 0 0 0
35 12 9 0.41 -23.66155359961681 7.187039542726469 -7.855059121324182 0 0 0
532 178 8 -0.82 -17.752375047105254 5.481136518743186 -2.134070644854157 0 0 0
58 20 8 -0.82 -19.884509327123894 10.544073225235477 -6.94394341242183 0 -1 0
215 72 9 0.41 -22.603844981240037 10.880845361926179 -10.870741118810551 0 0 1
374 125 9 0.41 -18.708614200073285 9.410349738336928 -10.256393238497807 0 -1 -1
2759 920 9 0.41 -22.011355203709044 5.225131824476582 -6.4929409240216724 1 0 0
1409 470 9 0.41 -21.779594935893563 7.914941917058426 -8.752630292068632 0 0 0
373 125 8 -0.82 -19.305962207531486 9.59318243668764 -9.473865679274148 0 -1 -1
379 127 8 -0.82 -17.43131829632064 7.339898225908447 -10.284160856469097 0 -1 0