LAMMPS data file via write_data, version 2 Aug 2023, timestep = 40000, units = real

3150 atoms
9 atom types
2100 bonds
7 bond types
1050 angles
8 angle types
0 dihedrals
4 dihedral types

-33.437507948496965 33.437507948496965 xlo xhi
-11.14583598283236 11.14583598283236 ylo yhi
-11.14583598283236 11.14583598283236 zlo zhi

Masses

1 15.9994
2 12.011
3 1.008
4 1.008
5 12.011
6 15.9994
7 15.9994
8 15.9994
9 1.008

Pair Coeffs # lj/cut/coul/long

1 0.2526 2.8492
2 0.0663 3.5812
3 0.0283 2.3734
4 0 0
5 0.245 2.8114
6 0.1195 3.1
7 0.1195 3.1
8 0.155 3.165
9 0 0

Bond Coeffs # harmonic

1 1109.29 1.12
2 399.792 1.43
3 299.844 1.52
4 400.034 1.53
5 310.707 1.41
6 179.254 0.971
7 529.581 1.012

Angle Coeffs # harmonic

1 47.694 109.5
2 55.1271 109.5
3 47.635 109.6
4 55.1139 111
5 54.9931 110.3
6 180.46 109
7 30.1731 110
8 37.95 113.24

Dihedral Coeffs # harmonic

1 0.3011 1 3
2 1.4149 1 3
3 0.239 -1 3
4 0 1 1

Atoms # full

2455 819 8 -0.82 -29.33456484938288 -4.302967295730777 -3.53903552657942 1 0 0
227 76 9 0.41 -28.132478658720405 -4.90222405145215 -4.625856440915733 0 0 0
300 100 9 0.41 -30.88169986447567 -7.2948397318273415 -7.681692762136356 0 0 0
152 51 9 0.41 -26.653518082603618 -6.07050680619303 -1.3466018027739857 0 0 0
2569 857 8 -0.82 -30.734338174348512 -6.511090881336694 -4.848859866910644 1 0 0
2571 857 9 0.41 -30.045123794543933 -7.200086043303954 -4.57110931898062 1 0 0
151 51 8 -0.82 -26.84687386779631 -7.039480753009974 -1.0461560968251469 0 0 0
2570 857 9 0.41 -30.34469273652605 -5.649545918888347 -4.459888085729987 1 0 0
2457 819 9 0.41 -29.128032075108067 -4.030643294366303 -2.5865434874063524 1 0 0
298 100 8 -0.82 -29.979015220584955 -7.515596148470343 -8.129332932947491 0 0 0
299 100 9 0.41 -29.185353306951892 -7.206190104110299 -7.578328680566205 0 0 0
269 90 9 0.41 -28.76379226309125 -8.647014213101533 -3.642309792545465 0 0 0
141 47 9 0.41 -28.28887467845967 -7.729953042009138 -0.7170038382896387 0 0 0
140 47 9 0.41 -28.978012500925935 -9.18061454665835 -0.7557513684156714 0 0 0
139 47 8 -0.82 -28.956456026524364 -8.336059215533819 -0.19490854060152074 0 0 0
20 7 9 0.41 -28.012306058748898 -9.57016509223395 -5.509316470924504 0 1 0
695 232 9 0.41 -26.30369836764369 -6.085194366543787 -6.62604760091907 0 0 1
268 90 8 -0.82 -28.7899137877625 -7.633770967435025 -3.504870817552227 0 0 0
228 76 9 0.41 -26.50098609240822 -5.070254677738374 -4.823761025421725 0 0 0
404 135 9 0.41 -24.581762551564623 -6.267893243220353 -8.162601253860979 0 1 1
376 126 8 -0.82 -32.385692000109266 -6.546965761436624 -7.1206467123725306 0 0 1
377 126 9 0.41 -31.900057198374604 -6.375130518325474 -6.19597496430627 0 0 1
31 11 8 -0.82 -32.95071905271332 -9.956708647571235 -3.469277463760494 0 0 0
451 151 8 -0.82 -28.417275681800763 -10.357523133523854 -3.628002117637572 0 0 0
270 90 9 0.41 -28.041980083859514 -7.079578334797009 -3.906291217635304 0 0 0
378 126 9 0.41 -32.46694208913028 -5.65803482440627 -7.6265440240360025 0 0 1
694 232 8 -0.82 -26.19675602162698 -5.873426924039848 -7.6129045943489535 0 0 1
467 156 9 0.41 -32.4678603163909 -7.896151687313232 -8.480735405786032 0 0 1
19 7 8 -0.82 -28.039593261678327 -9.569847735263318 -6.519344596366543 0 1 0
21 7 9 0.41 -27.139252767614316 -9.423966302768289 -6.945944438486215 0 1 0
68 23 9 0.41 -28.95022871052276 -6.876586052112611 -9.313114303937096 0 0 0
69 23 9 0.41 -28.44646966036415 -5.385550200651311 -10.055025076478799 0 0 0
67 23 8 -0.82 -28.470951872527767 -6.410658560141552 -10.093932853656622 0 0 0
473 158 9 0.41 -25.50520310051016 -7.04670271059094 -3.173137451043198 0 0 0
403 135 8 -0.82 -23.61417686160536 -6.665407031038046 -8.105110561712511 0 1 1
2661 887 9 0.41 -32.17267099118053 -9.33963600541691 -5.2025861955161385 1 1 0
405 135 9 0.41 -22.98039167297363 -5.927066546732626 -7.7995875995890325 0 1 1
452 151 9 0.41 -28.882925322926152 11.004350003440884 -3.5693138523465464 0 -1 0
696 232 9 0.41 -26.99875948032269 -5.29314002639488 -7.9180770689868165 0 0 1
327 109 9 0.41 -33.24248519734519 6.451093067655037 -0.7044742493761404 0 0 0
283 95 8 -0.82 -29.59259155822429 -9.98003544840867 -9.256033686992923 0 1 1
285 95 9 0.41 -29.87029769260292 -9.078922724369809 -8.85329307153328 0 1 1
2659 887 8 -0.82 -31.976331403920053 -9.084661887484017 -6.172800243690652 1 1 0
427 143 8 -0.82 -28.624525111157816 -4.363687618676793 -0.7006392618229942 0 0 0
32 11 9 0.41 -32.39174188815162 -10.451647107355463 -2.7184404147067873 0 0 0
226 76 8 -0.82 -27.41813654350527 -5.4540561307537585 -5.112564402839716 0 0 0
2414 805 9 0.41 -30.702489806698026 -10.993799963075665 -1.027617706294981 1 1 0
2413 805 8 -0.82 -31.587083355169742 -10.472762414086635 -1.2779297767609048 1 1 0
2696 899 9 0.41 -32.98838650697117 10.426207428539911 -1.1570693397258474 1 0 0
453 151 9 0.41 -27.475319034901474 -10.476645090591845 -3.2125681492003775 0 0 0
209 70 9 0.41 -33.21447182491451 -8.186413921790098 -0.2617205635871631 0 0 0
468 156 9 0.41 -32.93652750897789 -9.170366999583564 -9.47407841420136 0 0 1
466 156 8 -0.82 -33.20044202737639 -8.207714818290475 -9.127583644256227 0 0 1
260 87 9 0.41 -23.610388947097324 2.3489960395017704 -0.23090663910671694 0 0 0
1020 340 9 0.41 -25.460815302489387 -3.92648388572311 -3.054520381651143 0 0 0
111 37 9 0.41 -28.445739385405595 10.205958759044208 -7.471967553120933 0 -1 0
433 145 8 -0.82 -25.344846386779945 10.970778974875465 -0.4712098862301861 0 -1 0
685 229 8 -0.82 -28.53395995865109 -3.798964420074771 -9.355693061283445 0 0 1
229 77 8 -0.82 -28.946524436401162 5.80739748232368 -9.614305557800343 0 0 0
1018 340 8 -0.82 -25.326580130897828 -4.254607444166056 -4.018779986062962 0 0 0
426 142 9 0.41 -27.2575809731882 -3.98266056122492 -1.4031793986535845 0 0 0
284 95 9 0.41 -30.434605732991123 -10.5282050302785 -9.064944565183895 0 1 1
611 204 9 0.41 -25.791072945679655 -10.886348728625189 -2.128378484926369 0 0 0
424 142 8 -0.82 -26.234447119615606 -3.8588488286789673 -1.4804317365692086 0 0 0
109 37 8 -0.82 -27.976580518393817 10.331818712279244 -8.381529140990928 0 -1 0
105 35 9 0.41 -27.43691540362214 0.050529252688152226 -0.6631041541701315 0 0 0
325 109 8 -0.82 -33.067306372852215 6.351334054117764 -1.720798324634007 0 0 0
383 128 9 0.41 -25.108052410725932 10.578383089581934 -10.606474758351121 0 0 1
390 130 9 0.41 -16.929291043648487 2.0274324842355202 -4.921145017658173 0 0 0
101 34 9 0.41 -17.522000771012827 4.496719948029961 -10.304209249180419 0 0 0
1401 467 9 0.41 -21.0671019150616 10.22210601421213 -10.930119884546382 0 -1 1
472 158 8 -0.82 -24.49191154181847 -7.021275474991506 -3.2818122239081884 0 0 0
474 158 9 0.41 -24.00112266254792 -7.217616264037678 -2.3947342301140324 0 0 0
608 203 9 0.41 -24.547152032394095 -8.022801418809312 -4.917836679042242 0 1 0
547 183 8 -0.82 -19.88025007613933 -6.360695528061467 -0.6130328928227637 0 0 0
1524 508 9 0.41 -19.507747658724526 -6.01757059218708 -5.040617062818449 0 0 1
543 181 9 0.41 -23.994614235453042 -10.529101735635706 -9.698641572935964 0 0 1
541 181 8 -0.82 -23.626760952042414 -9.579382551078146 -9.88338510492673 0 0 1
542 181 9 0.41 -23.356302741850815 -9.153087046342828 -8.988745720900008 0 0 1
359 120 9 0.41 -21.95849662457281 -8.782174313136135 -6.434300562910141 0 0 0
469 157 8 -0.82 -23.234149876406345 -7.059042898717223 -0.8126626468611029 0 0 0
360 120 9 0.41 -22.78565020889056 -8.086516280893528 -7.757515210299486 0 0 0
358 120 8 -0.82 -22.2390704789377 -8.896394473972782 -7.407451018533815 0 0 0
460 154 8 -0.82 -22.73164476666186 -4.023196560758429 -7.484475559540497 0 0 0
462 154 9 0.41 -23.08782596289684 -4.629669941725747 -6.720191280997543 0 0 0
590 197 9 0.41 -22.186039223451456 -3.3024830465022017 -3.0265861162733767 0 0 0
470 157 9 0.41 -22.29167652948213 -7.246288014726478 -0.42580805436330316 0 0 0
589 197 8 -0.82 -22.92537157689941 -3.0960743185730895 -2.3736949584679508 0 0 0
305 102 9 0.41 -21.89451524959575 -6.212196663643688 -5.380876518598158 0 1 0
591 197 9 0.41 -22.76298178960436 -3.7282628428216382 -1.5860615208806266 0 0 0
607 203 8 -0.82 -25.04291829208377 -8.392003485637803 -5.739455667456888 0 1 0
1523 508 9 0.41 -19.378180397086815 -7.703839883810849 -5.076006172881564 0 0 1
1522 508 8 -0.82 -20.031446586998115 -6.906106861254464 -5.156960850862184 0 0 1
609 203 9 0.41 -24.89392709016855 -7.61274936348407 -6.356521412436473 0 1 0
548 183 9 0.41 -20.50029396071988 -7.054517252323187 -0.16295867052107482 0 0 0
304 102 8 -0.82 -22.80853567441809 -5.786480014960204 -5.207326862868084 0 1 0
306 102 9 0.41 -23.168113458564658 -6.104285106567427 -4.307203924278673 0 1 0
44 15 9 0.41 -18.536998412360703 -4.424973104847684 -7.496312011717578 0 1 0
753 251 9 0.41 -18.71641185169407 -9.354685137823413 -3.787781596346595 0 1 0
471 157 9 0.41 -23.82833709136157 -7.843056193030993 -0.4769542459042384 0 0 0
549 183 9 0.41 -18.936246273191223 -6.656316761066098 -0.812490504186929 0 0 0
751 251 8 -0.82 -18.590989725643375 -9.114855000588983 -4.8011315783185005 0 1 0
1236 412 9 0.41 -19.7202613367903 -3.813721581065347 -3.778538657761544 0 0 1
43 15 8 -0.82 -17.7071259835788 -4.981634884963556 -7.747075700330787 0 1 0
45 15 9 0.41 -17.29449732514564 -5.564933856077191 -7.002713513426147 0 1 0
514 172 8 -0.82 -22.235105507275296 -3.660743402154945 -10.156661266596721 0 0 1
167 56 9 0.41 -17.099600457480886 -4.351745216389298 -4.952851187534613 0 0 0
752 251 9 0.41 -18.311866666759194 -9.90878688630909 -5.418566940737202 0 1 0
515 172 9 0.41 -21.306319754305868 -4.027763730059334 -10.330390682974796 0 0 1
194 65 9 0.41 -23.43062904994621 -5.627574767513927 -0.4654633586741177 0 0 0
1510 504 8 -0.82 -17.39143029024259 -11.069468946364927 -6.395891211597473 0 0 1
1511 504 9 0.41 -17.994156957217395 -10.872194859878634 -7.20462630607101 0 0 1
88 30 8 -0.82 -19.008456252405455 -10.61653200131947 -8.942718429630911 0 1 0
516 172 9 0.41 -22.334103126440347 -3.8242542266323447 -9.130074608171626 0 0 1
90 30 9 0.41 -19.07534497762379 -9.598409702938756 -8.949472560222635 0 1 0
193 65 8 -0.82 -23.665605557046746 -4.686033193010172 -0.050742712634718856 0 0 0
434 145 9 0.41 -24.74141159841019 -10.516132645328716 -0.21319599470493245 0 0 0
606 202 9 0.41 -20.83785005196909 -8.425386874480251 -8.18002337581118 0 1 0
604 202 8 -0.82 -19.963815214783907 -7.875130814292149 -8.26992377984077 0 1 0
633 211 9 0.41 -30.556563544052217 2.284524082580914 -9.815932199162052 0 -1 1
906 302 9 0.41 -17.345317612784605 -7.066074424647076 -8.60181208817559 0 0 0
605 202 9 0.41 -20.153428315202405 -6.992065967969299 -7.79144656067843 0 1 0
769 257 8 -0.82 -17.049003626215853 -0.9889418873842537 -9.299339367735545 0 0 0
1019 340 9 0.41 -24.36556845322865 -4.626478910462771 -4.076122613500822 0 0 0
1235 412 9 0.41 -18.45141141762908 -2.9607089741333805 -4.102406134228019 0 0 1
1234 412 8 -0.82 -19.03504325579654 -3.6724506373572856 -4.563320600249136 0 0 1
737 246 9 0.41 -19.918400083473557 -4.413339250014082 -1.538121048849833 0 0 0
2618 873 9 0.41 -33.421556340885154 1.6792350255776558 -6.694673582689673 1 0 0
49 17 8 -0.82 -25.314119312582562 10.29341601056208 -8.888704391748092 0 0 0
174 58 9 0.41 -24.88877777287058 -9.70719138949568 -6.457896222573688 0 1 0
51 17 9 0.41 -26.300461967116156 10.057457230426152 -8.68484300826701 0 0 0
89 30 9 0.41 -18.67259656789124 -10.872979642461939 -9.866420022733413 0 1 0
137 46 9 0.41 -32.842456331461094 -0.3415939855863179 -5.572041275357827 0 0 0
2623 875 8 -0.82 -32.50349498621194 -10.79486725422456 -9.631473582867477 1 1 0
2456 819 9 0.41 -29.847403736873503 -3.565757836668973 -4.020895607589725 1 0 0
2604 868 9 0.41 -32.359795822795355 1.1617685942667446 -1.589046290742063 1 0 0
153 51 9 0.41 -26.39806167116249 -7.293328068118706 -0.15834636851811368 0 0 0
1093 365 8 -0.82 -16.899027855432774 -11.036696997321956 -0.08472229546553756 0 0 0
428 143 9 0.41 -29.46907058488556 -5.00317697827486 -0.6973837324857524 0 0 0
2935 979 8 -0.82 -32.811811348894636 -4.2300290451204265 -9.584496832034777 1 0 1
2936 979 9 0.41 -32.252868625003515 -3.730726519068562 -10.280513127270195 1 0 1
267 89 9 0.41 -33.27193132679253 -1.156464770347153 -8.694474242468607 0 0 0
2572 858 8 -0.82 -31.895869073256886 -2.2108124058240968 -5.371201702879087 1 0 0
326 109 9 0.41 -33.25485800865711 5.34575918179274 -1.920348516633572 0 0 0
2370 790 9 0.41 -31.01740751431623 -1.8785028376988109 -8.470877125428661 1 0 0
57 19 9 0.41 -30.30789026729216 0.21883236942434614 -9.947037092036414 0 0 0
2369 790 9 0.41 -31.73511819904291 -3.4231644296523065 -8.504599084999372 1 0 0
2573 858 9 0.41 -31.67901501179389 -2.431554861466797 -6.353645041589553 1 0 0
490 164 8 -0.82 -27.845091278597735 1.7337895958520377 -1.198924023225393 0 0 0
257 86 9 0.41 -32.99335015705997 -2.2337468581688604 -0.5093729240275415 0 0 0
203 68 9 0.41 -30.59045930046953 -0.3554240410694174 -3.276515484145616 0 0 0
202 68 8 -0.82 -29.713427022398708 -0.751658592684187 -3.6423408747759005 0 0 0
567 189 9 0.41 -30.128292773901553 -1.7491462325859146 -6.734840854025979 0 0 1
204 68 9 0.41 -29.071785734136483 -0.4730644046302288 -2.913355150606513 0 0 0
566 189 9 0.41 -29.472270349501407 -0.8416036931222681 -5.436189361162977 0 0 1
565 189 8 -0.82 -29.54989528831947 -0.9596911938893466 -6.4612449813510375 0 0 1
716 239 9 0.41 -28.255956373167443 -1.2129855328200474 -7.533230961451645 0 0 1
715 239 8 -0.82 -27.27536199460906 -1.3411407613337047 -7.8004853188566425 0 0 1
717 239 9 0.41 -26.84691778426206 -1.6105464009607502 -6.9017910179648645 0 0 1
103 35 8 -0.82 -27.12033092936047 -0.9263531954346238 -0.7310375955742519 0 0 0
531 177 9 0.41 -32.037625444874635 -2.343838561520725 -2.907138326724459 0 0 0
530 177 9 0.41 -32.50818650729188 -0.9107369420259115 -2.162379115557801 0 0 0
529 177 8 -0.82 -32.5019213439655 -1.9426125867336665 -2.094548274389096 0 0 0
104 35 9 0.41 -26.34113399010613 -0.9951490647558803 -1.4091004368398181 0 0 0
508 170 8 -0.82 -30.015832580063332 3.1226988518015197 -2.370892997487527 0 0 0
509 170 9 0.41 -30.377585034954016 3.2862155760275744 -3.3260950407424588 0 0 0
486 162 9 0.41 -30.347987399462156 2.8703645351312215 -5.966866869937773 0 0 1
484 162 8 -0.82 -30.865989200222174 3.3207393922387247 -5.174695105260673 0 0 1
510 170 9 0.41 -30.11631178559933 3.9005930215969116 -1.7010787928607272 0 0 0
739 247 8 -0.82 -26.90745333681263 0.17053871755164174 -9.869650414174892 0 -1 0
740 247 9 0.41 -27.0603479066678 -0.37601026008613303 -8.964364168031405 0 -1 0
294 98 9 0.41 -29.750423184339116 0.936404327502455 -6.512908654963235 0 0 0
292 98 8 -0.82 -29.40410907942261 1.8396477104268332 -6.850978379874918 0 0 0
293 98 9 0.41 -28.498328540149362 1.7804978417363184 -7.381587393961132 0 0 0
631 211 8 -0.82 -30.543619191403106 1.7991175568572615 -10.726520826685961 0 -1 1
55 19 8 -0.82 -30.246251266891306 -0.43016154129315787 -9.127627604248659 0 0 0
213 71 9 0.41 -32.08218124390537 8.969969806335016 -1.7406549335845671 0 -1 0
56 19 9 0.41 -29.895654494923903 -0.028112077903614363 -8.252946712909932 0 0 0
686 229 9 0.41 -27.95672358014057 -3.1621007268866377 -8.770212004303527 0 0 1
136 46 8 -0.82 -33.17101139717178 0.6084305328071409 -5.360495195245141 0 0 0
2368 790 8 -0.82 -31.21735295561315 -2.7530331725887773 -7.944700669858711 1 0 0
3058 1020 8 -0.82 -33.222175223122704 3.560844218386798 -2.112792360983219 1 0 0
687 229 9 0.41 -29.103325130357625 -3.309520620830167 -10.030586556537763 0 0 1
2762 921 9 0.41 -29.020478901243866 -1.00178370188479 -10.646969594463046 1 0 1
2429 810 9 0.41 -26.57330368165398 2.9139893442008873 -2.5403986205096576 1 0 0
492 164 9 0.41 -28.68641204645722 1.967047377047832 -1.7634958183686305 0 0 0
2493 831 9 0.41 -23.67246591372203 -4.905393088013219 -10.939204005389863 1 0 0
2428 810 8 -0.82 -25.667139829016207 2.574603509339047 -2.8613178174117806 1 0 0
2420 807 9 0.41 -21.6828480738711 9.109675884270207 -1.0646371726981307 1 0 -1
2332 778 8 -0.82 -27.07071013641773 2.3020569952100587 -8.331705601671365 1 0 0
2334 778 9 0.41 -26.132456739726464 2.1069477169803505 -7.981278294090872 1 0 0
2625 875 9 0.41 -32.114234839935 11.067847105310843 -10.46195904032954 1 0 0
741 247 9 0.41 -26.284370468349408 -0.3071357679012898 -10.531464414173906 0 -1 0
3094 1032 8 -0.82 -26.63387468820987 -1.6759973217915718 -5.250156829449549 1 0 1
2619 873 9 0.41 -32.685545279396564 2.5351684472406806 -7.808687426551353 1 0 0
485 162 9 0.41 -31.737553069829836 3.4517604839219196 -5.714105924247722 0 0 1
2333 778 9 0.41 -27.162198524100862 1.8776091663393775 -9.24046518714223 1 0 0
146 49 9 0.41 -25.00579850815512 2.9522034961336843 -4.474538980111982 0 0 0
2603 868 9 0.41 -30.863693677041308 1.7163537954825188 -2.271428681524462 1 0 0
2602 868 8 -0.82 -31.515018180729353 0.9298918510336431 -2.141188751688416 1 0 0
488 163 9 0.41 -30.633161159771166 -7.127044003554205 -0.9295392273566012 0 0 0
461 154 9 0.41 -22.786441400766975 -3.009861142812527 -7.250236505520533 0 0 0
598 200 8 -0.82 -17.365123008416617 -1.7508372422641436 -0.37478397811740116 0 0 0
2430 810 9 0.41 -25.179702523883186 2.2567024517204732 -1.987673838474704 1 0 0
1404 468 9 0.41 -17.926497447911636 1.2128721712766701 -0.4695473416830538 0 0 0
47 16 9 0.41 -17.59837521929038 -8.721981918281086 -1.341343343847953 0 1 0
2791 931 8 -0.82 -33.01730921086715 4.636760917566386 -10.81952152528244 1 -1 1
264 88 9 0.41 -22.245937647029088 4.515546483709475 -9.09257928847969 0 0 1
1035 345 9 0.41 -17.021965516747798 -4.527276314568645 -9.288362900698 0 0 0
623 208 9 0.41 -19.141782196838765 0.46398207943035175 -2.790957842054473 0 0 0
389 130 9 0.41 -18.427489172491903 1.3995703477635075 -5.376527836619318 0 0 0
1073 358 9 0.41 -17.272177735443123 -1.7806362029874787 -2.331928730397811 0 0 0
925 309 8 -0.82 -17.530207919484205 3.1620666083819984 -7.91827948079996 0 0 0
1072 358 8 -0.82 -17.194366772175574 -1.8980711848957323 -3.3586151323022984 0 0 0
135 45 9 0.41 -24.45458811794482 1.072562875333837 -4.746599949898038 0 0 0
133 45 8 -0.82 -25.057518397726398 0.46922314359671446 -4.225963396865611 0 0 0
291 97 9 0.41 -23.884383998123354 0.06645419687741949 -9.49208549095961 0 0 0
1402 468 8 -0.82 -18.82457299891834 0.759397018164929 -0.808245491710915 0 0 0
926 309 9 0.41 -17.39132319173779 2.456548479225191 -7.170524217055728 0 0 0
3096 1032 9 0.41 -26.34064708096405 -0.7325862953932383 -4.964810090992884 1 0 1
622 208 8 -0.82 -19.0980855908193 0.08192769711864933 -3.7385737589511674 0 0 0
499 167 8 -0.82 -23.09298262671042 -1.5167973227418905 -6.720463751956837 0 0 1
501 167 9 0.41 -23.517454581973908 -1.017555100711455 -7.528351891905551 0 0 1
3095 1032 9 0.41 -26.005235279129643 -2.3188598382389927 -4.785318240550311 1 0 1
262 88 8 -0.82 -21.544516325250058 3.80189881149993 -9.218746241664446 0 0 1
940 314 8 -0.82 -21.13106654749373 1.968838464458642 -0.009466391865162294 0 0 0
7 3 8 -0.82 -20.16616151042967 -0.9992674026481172 -8.988532171474695 0 0 0
569 190 9 0.41 -24.203552975801077 -1.8467565647366975 -2.2560657072241828 0 0 0
420 140 9 0.41 -22.60637679056815 -2.0855219768617346 -10.866656737642488 0 0 1
1181 394 9 0.41 -19.430000704324033 -0.3638959812216349 -10.32464643542724 0 0 1
500 167 9 0.41 -22.810262481683186 -0.8163465319338208 -6.012829892795256 0 0 1
487 163 8 -0.82 -30.68300903582019 -6.09438350811688 -0.8192666704424028 0 0 0
568 190 8 -0.82 -24.745304934981924 -0.9949181735309942 -2.0489857973077967 0 0 0
112 38 8 -0.82 -21.364274427708523 1.296039004141564 -7.397860747618629 0 0 0
113 38 9 0.41 -22.02495684357824 0.807158393220444 -8.025486663893407 0 0 0
114 38 9 0.41 -21.037558779395454 2.219829823995486 -7.714630218527471 0 0 0
570 190 9 0.41 -24.86006527218241 -0.45033238710634294 -2.9511383469723853 0 0 0
419 140 9 0.41 -21.43268807669733 -1.0070460152826914 -10.296856323356828 0 0 1
134 45 9 0.41 -25.47774187013086 1.2208376388561284 -3.6639304565563844 0 0 0
200 67 9 0.41 -19.529952357910084 -3.1433247934896578 -6.092467972994283 0 0 0
201 67 9 0.41 -20.819531257907165 -3.089975647026657 -7.141288044310385 0 0 0
199 67 8 -0.82 -19.799067998979776 -3.043166370465883 -7.07853309778135 0 0 0
418 140 8 -0.82 -22.260823485684664 -1.118636862527401 -10.91510383714874 0 0 1
290 97 9 0.41 -23.943023968095908 1.362780290644345 -8.390636621355085 0 0 0
289 97 8 -0.82 -23.842754760004205 0.3377032329129044 -8.51245374009714 0 0 0
275 92 9 0.41 -22.984369121494314 -0.04108587233680794 -1.476007011434664 0 0 -1
1180 394 8 -0.82 -18.913406117783893 0.09999087802663986 -11.10805723724225 0 0 1
9 3 9 0.41 -19.663961353497278 -1.7987116693685348 -8.546053059329381 0 0 0
274 92 8 -0.82 -22.220479313612742 0.4802825308280436 -1.9616148470684838 0 0 -1
276 92 9 0.41 -22.30515919839292 0.4312625816788511 -2.967536227881249 0 0 -1
8 3 9 0.41 -20.327998445682134 -0.3055246064129431 -8.27381083993817 0 0 0
1241 414 9 0.41 -21.24779006816302 0.35144949690237937 -5.948756477668326 0 0 0
942 314 9 0.41 -21.365953932637545 1.5285707511431266 -0.9289435534286898 0 0 0
901 301 8 -0.82 -17.66737753624499 8.10095987998903 -9.612666568742103 0 0 0
263 88 9 0.41 -21.70230328747214 3.2067592115706525 -10.053393964301629 0 0 1
14 5 9 0.41 -22.90574302949377 3.2894939570479167 -4.846033607528653 0 0 0
1403 468 9 0.41 -19.60687248715841 1.359993275318244 -0.4942183623023446 0 0 0
736 246 8 -0.82 -20.290655297026117 -3.758702856421979 -2.202157665756708 0 0 0
15 5 9 0.41 -21.630991478244916 2.5512540646195827 -5.781759952029655 0 0 0
1491 497 9 0.41 -21.61447133792055 -1.3426258614195703 -0.39308481201590517 0 0 0
1242 414 9 0.41 -20.74995658620509 0.1257490270033781 -4.35028551499484 0 0 0
2556 852 9 0.41 -17.138060228710927 2.6295585464252955 -1.6093668198354774 1 0 0
1240 414 8 -0.82 -21.5728791624203 0.17086860703011908 -4.994426566467052 0 0 0
624 208 9 0.41 -18.36514783156361 -0.6633917873822011 -3.7128390014480424 0 0 0
600 200 9 0.41 -17.801514038291437 -0.837626978115722 -0.33008447468813884 0 0 0
388 130 8 -0.82 -17.603101426192303 1.9023906709791731 -5.677878145374125 0 0 0
738 246 9 0.41 -20.596447268510325 -2.9315299072297787 -1.6179396090700617 0 0 0
422 141 9 0.41 -32.14568078897295 4.250246937328283 -9.153286551230016 0 0 1
13 5 8 -0.82 -21.888595660304105 3.2674244091543834 -5.072021794958633 0 0 0
770 257 9 0.41 -17.530083523042087 -0.8628599188331432 -10.176117033303752 0 0 0
927 309 9 0.41 -17.10010871883603 2.6351534094142632 -8.649014765003535 0 0 0
2660 887 9 0.41 -31.862506191486947 -9.945571349597877 -6.685354219225832 1 1 0
612 204 9 0.41 -24.820539553558728 -10.88643166244099 -3.510909158639941 0 0 0
212 71 9 0.41 -31.838320456326805 7.563402813370555 -2.272049610076289 0 -1 0
902 301 9 0.41 -18.209173920074385 8.127116093464984 -8.725063275964738 0 0 0
2574 858 9 0.41 -32.62204692013419 -2.8945165560521566 -5.03354480300374 1 0 0
211 71 8 -0.82 -31.309396091511232 8.447047173800552 -2.1495517361024525 0 -1 0
654 218 9 0.41 -25.178168742937295 7.83074186542197 -1.1137567110311295 0 0 0
356 119 9 0.41 -26.557950694413197 9.53375747531489 -1.2065389126792088 0 0 0
110 37 9 0.41 -28.44283129639233 -11.057193039604522 -8.52640139365494 0 0 0
610 204 8 -0.82 -25.78864915876536 -10.87218827999371 -3.1685406906643996 0 0 0
2541 847 9 0.41 -29.65729626794886 -10.613869640497668 -6.339712511066997 1 1 1
176 59 9 0.41 -32.11251287806855 7.616978969202275 -5.717001256108767 0 0 0
423 141 9 0.41 -30.921839896747425 4.342992390571984 -8.144386572417835 0 0 1
66 22 9 0.41 -25.43470825196507 8.959632452226113 -3.7976341234105577 0 0 0
652 218 8 -0.82 -24.27560801878998 7.450888681502828 -0.7720565473774261 0 0 0
421 141 8 -0.82 -31.58922303310539 3.662047223375245 -8.524075697311822 0 0 1
231 77 9 0.41 -29.550184632379505 6.556890789084772 -9.28104742980098 0 0 0
357 119 9 0.41 -27.36332178063347 8.260899003475998 -2.1390338520437755 0 0 0
206 69 9 0.41 -31.034713094374574 8.473500724939296 -10.568003123827769 0 0 0
64 22 8 -0.82 -25.470109845107668 8.174305933625881 -4.459385778308702 0 0 0
2540 847 9 0.41 -29.900129687060343 10.18099416834977 -5.509098294642374 1 0 1
302 101 9 0.41 -28.96549647361919 8.699805755996806 -3.8975556523715786 0 0 0
2580 860 9 0.41 -26.944493734792793 7.542769829376319 -4.030550888563778 1 0 0
2578 860 8 -0.82 -27.914828047674124 7.4738378517666035 -3.695415279497764 1 0 0
303 101 9 0.41 -30.421055255543703 9.13791109991908 -3.4862895406216836 0 0 0
2579 860 9 0.41 -28.41448825475082 6.628024695556682 -4.03647552347067 1 0 0
65 22 9 0.41 -24.720772215269417 8.269621229052223 -5.178290640266414 0 0 0
3027 1009 9 0.41 -30.533543150366647 6.149600495335321 -4.741054218257076 1 0 0
301 101 8 -0.82 -29.626570482543393 9.50589150034423 -4.004271035771579 0 0 0
351 117 9 0.41 -30.532832552202358 8.724694970887473 -8.361620552543943 0 0 0
3025 1009 8 -0.82 -29.72327161732957 5.681178150390121 -4.340781000644329 1 0 0
3026 1009 9 0.41 -29.96506418396726 4.690545674755407 -4.522706039257259 1 0 0
647 216 9 0.41 -27.185580042314548 5.026527437747379 -5.544498670752779 0 0 1
646 216 8 -0.82 -27.5158523350226 4.9714668829015345 -6.488902294535397 0 0 1
648 216 9 0.41 -27.06225970437731 4.243322937330024 -7.065796210665789 0 0 1
175 59 8 -0.82 -31.882136104404754 6.624813662689409 -5.941876921037553 0 0 0
349 117 8 -0.82 -29.966321067046984 8.483896278963986 -9.183043952634428 0 0 0
350 117 9 0.41 -28.989167006183145 8.692622942467239 -8.979528234222366 0 0 0
2539 847 8 -0.82 -29.883539519201683 10.674980017505263 -6.421946107628717 1 0 1
2815 939 8 -0.82 -30.010210068904435 5.190832951776137 -7.326713229682111 1 -1 1
2817 939 9 0.41 -30.58927247835427 5.754572878785936 -6.680152894601624 1 -1 1
2816 939 9 0.41 -29.121277507903148 4.976945501774953 -6.820303594023533 1 -1 1
118 40 8 -0.82 -26.261774149350007 7.232510021253656 -8.62603787181164 0 0 0
120 40 9 0.41 -26.880856958283346 6.585941358959161 -9.097798754560303 0 0 0
119 40 9 0.41 -26.33529261847549 8.150278878263418 -9.066711972429422 0 0 0
355 119 8 -0.82 -26.772192863155368 8.545138234027686 -1.3573904774334125 0 0 0
121 41 8 -0.82 -24.973122647886385 5.645837841809925 -3.4847722970132375 0 0 0
147 49 9 0.41 -24.796985564337675 4.514903747382389 -4.678261817559469 0 0 0
145 49 8 -0.82 -24.51802555072876 3.597303844047497 -5.115719273530727 0 0 0
272 91 9 0.41 -25.08859935451413 5.861751006375307 -8.32140454647091 0 0 0
122 41 9 0.41 -25.135685654807077 6.621169535317453 -3.8186747519896453 0 0 0
675 225 9 0.41 -31.709917606640005 -6.8714714862472634 -10.247298164093499 0 0 1
921 307 9 0.41 -20.504650580275417 9.702002062261368 -6.191971530860431 0 -1 0
920 307 9 0.41 -21.79575576706155 9.749652257674178 -7.181753002840852 0 -1 0
643 215 8 -0.82 -23.01386665330592 11.006336988740475 -4.034873657814953 0 -1 0
617 206 9 0.41 -21.030438767094843 7.21979587250679 -2.5349973436140623 0 -1 0
1489 497 8 -0.82 -20.63257629405753 -1.5822925997256885 -0.6820492804855398 0 0 0
48 16 9 0.41 -17.896444899575883 -10.285336336325853 -1.6934770349588 0 1 0
707 236 9 0.41 -29.361996706341593 9.669375524818427 -0.7435789128969361 0 -1 0
52 18 8 -0.82 -19.713257184613717 5.5053808714432435 -7.948940849100793 0 0 0
616 206 8 -0.82 -20.23959056102099 6.665540135235251 -2.863392074735982 0 -1 0
1055 352 9 0.41 -22.47410716001243 8.57384010436806 -5.84327123059307 0 0 0
86 29 9 0.41 -22.444627397801803 6.83055338333228 -10.821701464320073 0 -1 0
550 184 8 -0.82 -22.27926714301828 7.3841129312668805 -8.81183474620864 0 -1 1
2797 933 8 -0.82 -21.187488059535408 5.8604425245214 -5.65911457072788 1 -1 0
2421 807 9 0.41 -22.855946092579092 7.976217469593319 -1.3847075189636868 1 0 -1
436 146 8 -0.82 -20.32414507137499 8.679817497554328 -10.105966523364852 0 0 1
1033 345 8 -0.82 -16.9998672459226 -4.390883635847218 -10.311234325479555 0 0 0
1056 352 9 0.41 -23.620032834087574 8.303680306176787 -7.025239702151177 0 0 0
230 77 9 0.41 -28.5577370290792 5.250873171475497 -8.864333260766625 0 0 0
123 41 9 0.41 -24.735434033888794 5.629553046320048 -2.4900812265412586 0 0 0
58 20 8 -0.82 -24.58239662485815 2.9402330874165408 -7.736352838026669 0 -1 0
1054 352 8 -0.82 -23.290617135739225 7.988263372286102 -6.109717097894284 0 0 0
320 107 9 0.41 -18.490008636874222 10.168156747397816 -5.841269623117035 0 0 0
50 17 9 0.41 -24.926069396361754 10.850461885237095 -8.110631650723121 0 0 0
425 142 9 0.41 -26.14637788688797 -2.855010243358084 -1.2499836474935329 0 0 0
2419 807 8 -0.82 -21.97507461335179 8.421534193826595 -1.7606667968391516 1 0 -1
11 4 9 0.41 -20.457346831758336 4.23549305785966 -2.2480472464539183 0 0 0
12 4 9 0.41 -20.93706747696612 3.0916011640847145 -3.3864770270716518 0 0 0
273 91 9 0.41 -23.68158764956177 6.224939156466803 -8.868050272406084 0 0 0
618 206 9 0.41 -20.314430522959178 6.573346463992365 -3.884628100412736 0 -1 0
282 94 9 0.41 -17.195782154733315 6.4038877888688575 -6.396798418129714 0 0 0
280 94 8 -0.82 -17.955658056309275 7.003272949248078 -6.747590220915608 0 0 0
368 123 9 0.41 -24.827386509353083 5.117363418247141 -10.489365945348519 0 0 1
1259 420 9 0.41 -17.30508203367979 9.139197690080731 -10.969453821889855 0 0 1
59 20 9 0.41 -24.547953293542136 3.1934529116650694 -6.750234245891645 0 -1 0
2555 852 9 0.41 -18.491919997167145 2.9324483977997087 -2.2748111134356055 1 0 0
561 187 9 0.41 -18.75190314406991 7.136786174529359 -3.2798613207043283 0 -1 0
437 146 9 0.41 -19.293969171892144 8.56737143536147 -10.032756014392467 0 0 1
644 215 9 0.41 -22.317040960310607 10.772449734786953 -4.759916845802105 0 -1 0
551 184 9 0.41 -21.903923339900025 8.060560408634121 -9.509813251078368 0 -1 1
195 65 9 0.41 -24.671066302807127 -4.552738282534973 -0.1391877048465222 0 0 0
2554 852 8 -0.82 -17.505599073849247 2.896481101757505 -2.538065635182967 1 0 0
318 106 9 0.41 -32.08831302451572 3.5496585403953844 -0.6381405836198368 0 -1 -1
54 18 9 0.41 -20.335982328978666 5.762169340427615 -7.14747263262392 0 0 0
2798 933 9 0.41 -21.33136841976565 4.868754363885905 -5.393099792342589 1 -1 0
552 184 9 0.41 -21.4944410810528 7.04518187617867 -8.245415877501888 0 -1 1