LAMMPS data file via write_data, version 29 Aug 2024, timestep = 1000, units = lj

1150 atoms
2 atom types

-20 20 xlo xhi
-20 20 ylo yhi
-20 20 zlo zhi

Masses

1 1
2 10

Pair Coeffs # lj/cut/omp

1 1 1
2 0.5 3

Atoms # atomic

785 1 -9.148755784938631 -19.487639369269115 -19.130299293845685 0 0 0
618 1 -8.488143308283338 -19.494472289443664 -18.225574423021538 0 0 0
348 1 -7.467722926773991 -19.852323590895086 -18.51771256043261 0 0 0
377 1 -8.063857284750007 -19.22848212667697 -19.232008172426625 0 0 0
551 1 17.788089098039617 -18.837743729926647 -16.711888672635954 0 0 0
484 1 -17.20905884234057 -16.925107123305374 -17.867211123117706 0 0 0
765 1 -3.8261715063210096 -14.376800363401317 -17.98852333426911 0 0 0
836 1 -2.9561732156441822 -14.072772977696498 -17.377496445759583 0 0 0
176 1 13.85012319716356 -17.401315343949413 -17.557410645087494 0 0 0
723 1 -8.64525603718237 -14.679582150604523 -18.49998835943686 0 0 0
908 1 -1.7507364294074996 -12.772819363791967 -17.567026079035188 0 0 0
629 1 2.1013176789874417 -15.279528419699279 19.71673308290446 0 0 -1
471 1 -11.212874728522786 -10.629783827117311 -19.936772267795057 0 0 0
142 1 -3.8169344896309796 -12.702990789109288 -16.54503983541579 0 0 0
887 1 -3.964270496731936 -12.486160248777118 -17.640850796218025 0 0 0
211 1 7.365852028707424 -12.883256709822195 -17.864719263344917 0 0 0
192 1 -11.606369596605917 -9.586046998940562 -19.94822786776887 0 0 0
109 1 15.426859043715728 -9.396384017792812 -18.42751835355584 0 0 0
497 1 15.616097481204873 -10.487188041911551 -18.56980904574668 0 0 0
607 1 16.468435232946778 -9.782452850743 -18.340202266650017 0 0 0
63 1 -15.350293464125462 -7.098691761702792 -18.752051725298507 0 0 0
647 1 -10.785639939174237 -8.828829184553513 -19.917143955862304 0 0 0
1096 2 1.842696986258908 -4.981277814409612 -18.234884239748865 0 0 0
653 1 9.792741075805209 -4.728507506049715 -17.74764665516733 0 0 0
977 1 16.826231692215632 -5.234264072781587 -18.990365904076707 0 0 0
175 1 -19.000125689153787 -3.9830985276441098 -17.64381102538422 0 0 0
422 1 -18.600380032929422 -4.827639286736771 -18.265840609922137 0 0 0
430 1 -11.673024053771618 -3.265358734302084 -16.25995171685232 0 0 0
783 1 -18.5905345366376 -0.3561488522237289 -18.28822565697488 0 0 0
586 1 -13.933202697038487 -0.8638652512364495 -19.58629770732813 0 0 0
32 1 16.639114827211706 -0.4466776590020084 19.84977655884291 0 0 -1
128 1 15.621645677636137 0.01704448623873683 19.78366640567841 0 0 -1
490 1 -18.853092705169352 3.755400322011148 19.806804220279027 0 0 -1
1098 2 7.178906699162826 3.6607237331915203 -17.593668274800972 0 0 0
1040 2 -3.2382708127647404 4.458506108595455 19.945712216981473 0 0 -1
598 1 8.24005633464398 4.228417432691643 -16.063818856891764 0 0 0
921 1 12.568004128732579 5.387947067723124 19.803666410014504 0 0 -1
76 1 14.052594546948287 8.076670418424932 -16.945176439666362 0 0 0
561 1 7.1971487214839645 10.51936612746471 19.86246482714657 0 0 -1
244 1 8.011439109546926 11.268258367163767 -19.964924781922853 0 0 0
492 1 15.130199253743932 8.221657317264478 -17.134244845311812 0 0 0
402 1 -8.08803274901087 12.701803836746187 -19.07837066287825 0 0 0
915 1 6.935657055808294 11.587284376788054 -19.893748407485344 0 0 0
575 1 10.449220749615856 12.096792700852195 19.360396803411284 0 0 -1
562 1 14.164975950278683 12.874378109120212 -17.80300608673872 0 0 0
91 1 17.437499180908496 12.17212417997546 -19.788533484157213 0 0 0
133 1 -17.328721105401865 16.11675475914502 -19.51992552329214 0 0 0
567 1 -8.751746836216933 13.60111008110353 -18.976043425156597 0 0 0
104 1 14.633801564702544 15.307533793614585 -17.655175934652632 0 0 0
25 1 -17.657147097472528 16.970579096354452 19.83371550952323 0 0 -1
77 1 -16.82031566859772 17.110672957457712 -19.42893966994746 0 0 0
564 1 -2.183230721623078 16.541971063874715 19.994507849428544 0 0 -1
732 1 -17.87553586192296 16.98133122085353 -19.06366990864211 0 0 0
901 1 -17.573261882349755 17.924972919824555 -19.58598307082984 0 0 0
760 1 -8.372808766815579 19.712908533195957 -19.01421622700313 0 0 0
734 1 -2.2775831552131014 17.63354303090742 19.751577551165603 0 0 -1
960 1 4.8237808504939395 18.058623051673354 19.997344392828992 0 0 -1
20 1 8.56808442735354 -18.62329839224721 -17.231965305504158 0 0 0
322 1 9.147310593503438 -19.357840201553817 -17.85315085522638 0 0 0
193 1 16.694026198807247 -18.65579876602614 -16.82047808296908 0 0 0
489 1 18.856216088182666 -18.90992563749804 -16.39541237866936 0 0 0
498 1 -3.840101131836336 -14.5627765529008 -16.881923160801744 0 0 0
810 1 3.8614585005979456 -15.439238781605116 -17.044599202588483 0 0 0
202 1 7.4871219060987535 -15.798294924949927 -17.523276369923547 0 0 0
979 1 17.392216516481742 -17.795575117477163 -16.64949179324859 0 0 0
144 1 -19.35339385222556 -15.16461396662746 -15.71066351181935 0 0 0
437 1 -6.653548986995243 -14.772319111763185 -16.089640150763913 0 0 0
270 1 -3.9834891107054053 -13.546205338521478 -17.27973896085314 0 0 0
347 1 -3.308381516790709 -13.69492914263768 -16.41577521684549 0 0 0
382 1 3.7864137055794114 -14.455227482768024 -16.509745324217363 0 0 0
60 1 13.982536227153764 -14.906982645051308 -16.63331172432284 0 0 0
500 1 -16.022956973314933 -10.100808933585421 -18.934140853468186 0 0 0
659 1 -2.182225015851798 -13.494373720743708 -16.827979723422935 0 0 0
945 1 15.728142496017236 -10.034348552308684 -17.544401360717682 0 0 0
929 1 -16.441145750369394 -10.984828776583438 -18.403832611565534 0 0 0
982 1 -15.328791679631438 -10.77920576364071 -18.3906714179843 0 0 0
1101 2 -2.6661089067072004 -11.149469360274463 -17.097511977329503 0 0 0
280 1 14.713581324971722 -10.13915538795886 -17.988258867312066 0 0 0
1148 2 4.255752992186063 -6.790032443860714 -16.73662270777084 0 0 0
593 1 -18.967857026979942 -5.023394236399297 -17.22346017816033 0 0 0
526 1 -18.01442296320519 -4.4533922636208025 -17.38465442814171 0 0 0
1074 2 -1.2695548041749003 -5.195327336000802 -16.965682931963812 0 0 0
649 1 -11.538571912342208 -4.305952221475405 -15.861342012274294 0 0 0
1076 2 4.099348135679393 -3.4610182242924212 -16.25138043299862 0 0 0
246 1 11.672293898127577 -2.9988064544864983 -16.11375930469861 0 0 0
930 1 -18.74993810432881 0.7539599140429217 -18.23798206793218 0 0 0
1091 2 6.803231221795344 0.32398972532347187 -17.327749125402633 0 0 0
946 1 17.49937830256016 1.8548824900867402 -15.089141580311002 0 0 0
70 1 14.332668320849537 7.004166254937532 -17.04472758483393 0 0 0
99 1 14.061234404141445 7.4012769280529564 -16.041046959323737 0 0 0
686 1 13.269718089214775 7.302478167929192 -16.829093712473433 0 0 0
110 1 -8.471072059490202 10.076821089443744 -15.734926808215333 0 0 0
592 1 -8.195311381080247 13.20986388392422 -18.08297596482043 0 0 0
902 1 -7.414738385349625 10.37608818082179 -15.503820806212783 0 0 0
889 1 -6.410537288328317 14.410627910365344 -16.6153006143188 0 0 0
302 1 17.716456971686625 11.059746851837598 -16.24249465871257 0 0 0
119 1 -11.650850720903776 13.370543968761316 -17.05488617768377 0 0 0
877 1 -12.659313633595062 13.44940998342312 -16.568229765913454 0 0 0
506 1 -6.716308108787462 15.4889076636728 -16.56865770581141 0 0 0
568 1 -5.631433372330203 15.208890367218885 -16.55570496296511 0 0 0
730 1 -2.649367724342422 15.726713360343494 -16.390117218715357 0 0 0
389 1 2.7979619446093436 15.140226867473418 -16.292139284813768 0 0 0
65 1 -11.864590112511037 17.327096375815625 -16.063067492271657 0 0 0
998 1 -6.289885748937511 14.983574443098766 -15.66406700839165 0 0 0
457 1 2.0355115163615842 15.852526288609221 -15.878333800188873 0 0 0
748 1 7.178667959800936 17.195891092141142 -15.795977807577032 0 0 0
881 1 14.747315212201505 16.013463767498997 -16.789614098461236 0 0 0
505 1 -2.464517692065773 17.283289152340803 -17.20837278687986 0 0 0
518 1 11.380470741480371 19.065917465427983 -15.825306429029729 0 0 0
993 1 12.31851122237722 19.088151966912903 -15.209177205046478 0 0 0
909 1 18.92889414226644 -18.65997195504866 -15.303010221283278 -1 0 0
555 1 -14.277542952701957 19.786423866587583 -13.872643855748152 0 -1 0
670 1 -4.148464169968516 -18.90168154129314 -14.200707610640125 0 0 0
507 1 1.0278167689082476 -17.97614602303778 -14.312610779141842 0 0 0
899 1 11.63895257071911 19.981322587546348 -15.229418686337585 0 -1 0
926 1 18.20138734442183 -18.11836915298845 -15.953570139276454 0 0 0
436 1 1.5441297425700247 -17.14179024348951 -13.76745722622505 0 0 0
530 1 17.170063420957028 -18.518166396824274 -15.820961912604254 0 0 0
333 1 -7.118902798995149 -14.74271562703833 -15.068308654378665 0 0 0
709 1 -3.0189148348768513 -12.984241470199013 -17.277257938464846 0 0 0
74 1 7.300379928498498 -13.225318643287943 -14.100363626902082 0 0 0
814 1 10.980664093206151 -15.086057877939421 -12.96413648016425 0 0 0
336 1 -10.193357608907753 -11.825658367954754 -13.630347325213762 0 0 0
454 1 -2.753317535413776 -12.782273282822787 -16.19584490417457 0 0 0
223 1 -18.76103948415732 -10.933573005048741 -13.277071895304191 0 0 0
306 1 -18.148740842368735 -10.136237107131848 -12.777724897508712 0 0 0
459 1 -3.3058554203260253 -9.894613395429396 -15.770117344481422 0 0 0
882 1 7.720821968462017 -9.959569201850012 -14.633501614087592 0 0 0
1139 2 -2.676183336133411 -8.055521794482909 -15.883640140568348 0 0 0
1085 2 6.552718969253014 -8.427699748029841 -14.896945543129688 0 0 0
816 1 10.812937477293373 -6.540738474362091 -14.79586322066554 0 0 0
888 1 13.220478055159285 -5.514046188684425 -13.767350200112121 0 0 0
282 1 17.03435677385779 -4.538672987899271 -15.301801233842664 0 0 0
360 1 -12.39759777940289 -3.6760375093627 -15.50749540956931 0 0 0
247 1 -9.261472754706082 -2.8868421475834203 -13.286552084810062 0 0 0
1103 2 -10.830656516588222 -3.0947034942457563 -14.51487972865481 0 0 0
1069 2 -7.971204413799197 -4.339079999341729 -13.549028526617843 0 0 0
388 1 12.636310806052165 -4.697899302344724 -14.270117311658542 0 0 0
301 1 -16.98440716432208 -0.6303599823811602 -13.522239705663498 0 0 0
1052 2 2.1788103845324542 -1.038414884296864 -14.914729182282299 0 0 0
795 1 11.511724193933837 -2.3741406967833 -15.198775732423615 0 0 0
911 1 10.931885608826883 -1.4850062530739703 -15.55493805037715 0 0 0
906 1 15.2140660085854 -1.24075206864638 -14.606406371585063 0 0 0
478 1 -16.277847100231423 0.17194293024715349 -13.188434774666083 0 0 0
1009 2 2.2966631916437286 2.217752752176682 -14.058968524112 0 0 0
644 1 17.043464313577672 1.7129884335806527 -14.07328808185728 0 0 0
924 1 18.14866465316242 1.5782744834036346 -14.21633328497747 0 0 0
606 1 -12.561149749474572 3.988582803149898 -15.240828913594061 0 0 0
1111 2 10.083526043545959 3.6237960329506738 -15.904551174048628 0 0 0
277 1 -19.73714569242628 6.769609241748366 -13.192605120608805 0 0 0
676 1 -16.472908996792246 6.188033486880529 -13.852140654186417 0 0 0
1118 2 6.393589577765715 5.9327891736840925 -11.415474360611066 0 0 0
1138 2 7.3574108603347 5.029759351150215 -14.524324600506656 0 0 0
853 1 -7.77066378709316 9.348179373426277 -15.251408522948335 0 0 0
585 1 12.331869014158146 7.79499638053314 -16.466119602809506 0 0 0
335 1 12.990563463752395 7.223605909300768 -15.749830520763755 0 0 0
782 1 13.308336723427118 8.220868765299427 -16.142384850004255 0 0 0
831 1 -8.841234660961499 9.398216072564638 -14.924871562838698 0 0 0
401 1 -8.15076081837953 10.244257223621718 -14.674439239448603 0 0 0
300 1 2.6866241295278406 11.062625158983005 -13.908589104218281 0 0 0
1062 2 3.2079630439535216 9.397279258437157 -14.759886324147212 0 0 0
634 1 4.566581116759418 10.77770729477004 -14.895730196131032 0 0 0
525 1 17.898101038620826 10.783277121265423 -15.169863430813788 0 0 0
231 1 18.26816091037017 11.765922935462754 -15.566553508758696 -1 0 0
200 1 3.7191800301592113 11.22383467028274 -14.313498586884165 0 0 0
984 1 8.04911221140132 13.219890589764432 -14.797169022047033 0 0 0
578 1 17.167724131101547 11.59690721142571 -15.42378492986976 0 0 0
224 1 -5.235001527140713 15.320387499057357 -15.51764289895877 0 0 0
811 1 9.085351304782074 13.600805274541592 -14.99973652725313 0 0 0
910 1 -17.640797810103905 16.186965130114086 -13.467087476116758 0 0 0
134 1 -6.004171770541895 16.04021681534944 -15.903401510855984 0 0 0
589 1 6.798191827514949 17.740179552686566 -13.064907574281529 0 0 0
237 1 15.731417081663684 17.497562955023295 -13.293249239241298 0 0 0
692 1 -14.747543427657675 19.25380767993732 -14.728513552479296 0 0 0
787 1 -14.481354327056598 18.68929669361423 -13.790478607897725 0 0 0
722 1 -13.67671847470151 19.04168108931458 -14.486656932993855 0 0 0
943 1 -13.186384960431182 19.94607195460944 -14.058174677713088 0 0 0
762 1 18.0342471468323 -19.20636951077377 -15.68949510575787 0 1 0
746 1 0.9192787794085346 -17.881278625541484 -13.199443796329959 0 0 0
646 1 -17.00622433586349 -17.312964751769673 -12.091376198543259 0 0 0
180 1 10.838932054616635 -15.846272471682305 -12.1505604823669 0 0 0
327 1 19.609720274844502 -16.431956863098296 -13.219566385806464 0 0 0
594 1 -11.919766791127515 -15.520458480119919 -12.345675375473535 0 0 0
981 1 -5.63715725616309 -14.46908357256045 -12.846725103743728 0 0 0
117 1 -18.444465132849132 -11.056475715512349 -12.207169619671884 0 0 0
376 1 4.8831646000788655 -11.263217690629853 -11.858108728585437 0 0 0
312 1 -15.287934195320895 -10.372544676792952 -12.265649397063342 0 0 0
173 1 -10.223413606991388 -10.801704245055017 -13.171516467538817 0 0 0
432 1 -1.6037145323561515 -10.344617219223519 -11.626570418548194 0 0 0
245 1 2.0743586679656625 -10.159384774958506 -13.142021300561332 0 0 0
71 1 -19.219600267154355 -10.291409319058246 -12.478854947802652 1 0 0
574 1 -14.363255807188493 -5.99904520537436 -10.738847314625353 0 0 0
870 1 -9.807675559708752 -3.8170973179345276 -13.009139347666382 0 0 0
1137 2 2.800737818083021 -5.470679242600043 -12.261982880382936 0 0 0
983 1 10.926873731201301 -6.298395185847662 -13.705887045762815 0 0 0
860 1 -17.747085307008152 -0.8054100163545554 -12.720987208946013 0 0 0
467 1 -16.69323374000289 -0.5498333146900305 -12.438985710318413 0 0 0
935 1 -9.979371054729864 -2.0435703021634835 -13.144780848520385 0 0 0
1130 2 6.1395168230501005 -0.8931523848671432 -12.114485046487394 0 0 0
362 1 -17.359133071545923 0.22927239703084307 -12.902650833672498 0 0 0
216 1 -12.552661520497965 1.4866544674543585 -12.198967254524996 0 0 0
1064 2 -7.4585166273965635 0.8441327704514671 -10.451159910964714 0 0 0
1083 2 -5.45069140205082 0.4284033057607521 -13.140991543487255 0 0 0
1057 2 0.29185905406238144 1.252913961724 -11.531378743010892 0 0 0
873 1 14.194607241595653 0.4511165254596893 -13.479330559959829 0 0 0
1048 2 -2.488861633419099 3.1343291993957063 -11.272422296892318 0 0 0
1150 2 3.304754409368451 4.9084581137633725 -12.298531061622345 0 0 0
642 1 -8.025170542707066 9.257006756801943 -14.167945355534203 0 0 0
728 1 6.51054800444746 7.798574960902736 -10.996700895832252 0 0 0
820 1 19.962053876901713 7.297320822977445 -12.248663156360887 0 0 0
167 1 -16.41742335650329 10.03661022990546 -12.903447007368191 0 0 0
920 1 -2.082983620042709 9.8269821859808 -11.119101657120115 0 0 0
857 1 -16.986854526255676 11.003249002650502 -12.940277148725833 0 0 0
611 1 -5.868913428511961 13.14606977972533 -11.909425928033494 0 0 0
466 1 13.489016893814325 13.412837171355182 -12.295133643950546 0 0 0
781 1 -17.816242906818474 13.37691838161642 -9.955542518910098 0 0 0
263 1 -9.055165372907274 15.128245434899647 -9.938699561313861 0 0 0
132 1 1.8946673881162073 15.548069068865827 -11.601506771796544 0 0 0
627 1 0.8787780007317718 15.586528493834928 -12.077337347031447 0 0 0
363 1 14.569891171326613 13.568514205304423 -12.035512737010341 0 0 0
569 1 13.809082769229901 14.347103520167439 -11.761643597664495 0 0 0
261 1 -19.9126738445325 13.546936069970533 -12.471039256945165 1 0 0
92 1 -18.629088365976298 17.39893418644604 -11.465463072661382 0 0 0
482 1 -13.525091466498496 19.113199255395962 -13.383226647823017 0 0 0
695 1 1.3742252611619428 16.533633553050674 -11.734630964668668 0 0 0
537 1 7.848225409014957 17.949933979629364 -12.765806641058795 0 0 0
742 1 8.286474183780818 18.978966381438784 -12.785410672554708 0 0 0
974 1 7.209535530356338 18.823946994966523 -12.495550102517791 0 0 0
400 1 15.301579379102188 18.0993402589028 -12.448827055117933 0 0 0
305 1 -17.236492573592802 -18.01085430059336 -11.242937575160088 0 0 0
544 1 -16.18694863281224 -17.645062550241224 -11.399660087436196 0 0 0
711 1 -10.49679667087925 19.9044597510688 -10.62339748168741 0 -1 0
308 1 3.768938822234404 -18.170429064827445 -10.217317329204393 0 0 0
393 1 7.741062799598446 -17.855369393711808 -9.233131191380208 0 0 0
337 1 8.610690921523947 -18.113388433807234 -8.572806871941175 0 0 0
148 1 0.7566479949602382 -17.08689652741036 -8.055269231097004 0 0 0
241 1 17.71506812702421 -15.158104390852944 -9.238257218661749 0 0 0
907 1 7.7413938924968395 -14.133030794647096 -9.681317889967614 0 0 0
443 1 12.968472340965322 -14.846144440445055 -9.90517592882769 0 0 0
528 1 -12.292201518240672 -11.888073874021725 -10.41023730018417 0 0 0
81 1 -6.897485699211552 -9.79735260591161 -8.636401040386962 0 0 0
367 1 -7.658917294198436 -9.95536381241015 -7.82993852037417 0 0 0
736 1 13.836509687936184 -8.781025914892869 -10.03941295733642 0 0 0
80 1 -5.590141509320769 -6.646186563034333 -7.525697322763117 0 0 0
21 1 14.334358599979652 -7.790018042825855 -9.86583363222673 0 0 0
595 1 -13.968711302072958 -5.782417513907952 -9.71059204448221 0 0 0
1024 2 -5.944647655941939 -5.493045850700541 -9.153432954516145 0 0 0
191 1 9.271748197841449 -5.5044329453394605 -10.607804203562083 0 0 0
435 1 15.395927559028493 -4.833477971137128 -9.910548791820753 0 0 0
509 1 -15.103789901215876 -2.4942728526448885 -10.60769480801293 0 0 0
1077 2 -9.809708381668926 -2.7525155089794002 -11.362031358107679 0 0 0
1078 2 3.345802296516815 -2.4016431148198105 -10.981323138796744 0 0 0
801 1 -15.871023735653775 -1.8220924859963024 -10.139167849299175 0 0 0
84 1 -15.249716003458166 -1.4509658736179802 -10.996868667170743 0 0 0
326 1 -14.77779093069629 -1.6154759677329231 -9.990795249160385 0 0 0
1095 2 -9.172006626182451 -1.2375100718354415 -8.380280798933931 0 0 0
228 1 9.254031534693345 -0.10691195711653512 -8.218102294049952 0 0 0
694 1 19.20159455683643 -0.5234303920225519 -9.1254313435906 0 0 0
66 1 -19.817402588545942 -0.16914132815655583 -9.53051171798002 0 0 0
273 1 -19.53395549389512 0.889943698395304 -9.313866724388449 0 0 0
1102 2 8.675369350870925 0.221587803591677 -10.178261530202452 0 0 0
1027 2 4.975292974906379 1.9852974810694242 -8.734412918206875 0 0 0
1142 2 2.8692959319778386 4.617265014361629 -8.971585820823252 0 0 0
1134 2 7.8313666528636094 3.468568348912302 -9.58266076591862 0 0 0
797 1 8.249510428354197 1.6667442111262076 -8.922291953796602 0 0 0
875 1 14.545268356827403 3.347092741279311 -8.004772993297422 0 0 0
276 1 18.054217710294537 6.080485015050952 -8.812227129484235 0 0 0
364 1 -17.86398022008709 6.708700827164304 -9.196310160767686 0 0 0
958 1 -7.60762931833665 9.131380862613124 -9.480639008257778 0 0 0
1065 2 -0.5949500219322885 8.935584575623901 -10.242043134352189 0 0 0
398 1 6.578958110063725 8.238383111845119 -9.970754272463385 0 0 0
937 1 6.009191929816175 7.287264117856289 -10.117166748045305 0 0 0
452 1 7.12387093675392 7.287077917974172 -10.212958796482171 0 0 0
475 1 -18.838634034271234 13.014319186446432 -9.683011122587423 0 0 0
346 1 -7.425314684915949 8.679971454243974 -8.47151962552829 0 0 0
554 1 -6.795349063542474 9.533823325183592 -8.819543821402595 0 0 0
69 1 1.0335693089010938 9.983549827889236 -10.41115392849526 0 0 0
409 1 15.23820746866426 9.96172171419893 -9.072150326151325 0 0 0
126 1 15.803611914270135 10.688376918612311 -9.714204640441233 0 0 0
405 1 11.515460322774828 13.294449662757657 -8.776155409713787 0 0 0
862 1 -19.9359136319298 11.118140658055784 -8.404906175551025 1 0 0
472 1 -18.46732766987656 13.976531354459631 -9.26285273459282 0 0 0
959 1 -17.758068484753668 14.492124920698965 -9.941625602039649 0 0 0
67 1 -16.83283668949477 14.807787895817786 -9.403322790881115 0 0 0
855 1 -16.823470294584446 13.883764906874434 -10.04308187244397 0 0 0
871 1 -17.368229129076628 13.890895144422132 -9.06998149258698 0 0 0
717 1 -8.443473048752834 14.218279641703235 -9.701546650817543 0 0 0
750 1 -9.198408277630664 14.59528209340033 -8.969506929509809 0 0 0
349 1 -8.254077101931706 15.184385389317008 -9.163107528738657 0 0 0
989 1 -2.921889444118155 14.882765497880573 -8.422596827702568 0 0 0
154 1 6.484139402903389 15.088088775305867 -9.751349754310594 0 0 0
758 1 7.450604030075901 14.78574680688388 -9.263359816422648 0 0 0
540 1 -9.343129838140168 18.560696609158096 -10.719960000480086 0 0 0
288 1 7.08340848831988 15.844481743235953 -9.174927861873487 0 0 0
116 1 7.459354070473924 15.460357252851047 -10.157671966524154 0 0 0
560 1 11.135894086606587 14.059573236890031 -9.495579256998141 0 0 0
197 1 -15.423492475044139 17.732933649827196 -8.922029228735804 0 0 0
942 1 -9.411999500716206 19.656476611670385 -10.501227968466871 0 0 0
434 1 7.039560105127428 17.85146015310591 -11.98256629046289 0 0 0
533 1 -14.105203199987347 -19.124514243860073 -7.398689209658467 0 0 0
837 1 -10.15928447276676 -17.47155859935645 -7.929136113472524 0 0 0
137 1 -1.320688140874052 -18.87717270483371 -8.720030626979563 0 0 0
210 1 2.301481503787817 -18.055644136337257 -7.959104996232395 0 0 0
759 1 8.24973379116562 -17.058283035839718 -8.632172130398846 0 0 0
832 1 -9.221206863130316 -16.855922239015637 -7.899331656862878 0 0 0
291 1 1.401868302833679 -17.83177169281508 -8.587706143822674 0 0 0
45 1 1.8713985018192485 -17.021421603606772 -7.965976260352623 0 0 0
204 1 7.610182952365185 -16.794033509804983 -7.755769153857077 0 0 0
413 1 7.134359716881344 -17.055247827128586 -8.73769727519591 0 0 0
447 1 7.62507916859453 -17.84994634626105 -8.11880713694474 0 0 0
990 1 -10.223925882372235 -16.352064014616445 -7.877251570694636 0 0 0
10 1 -5.137850872325084 -15.748748558086868 -7.007507607204274 0 0 0
449 1 -4.448644042220964 -15.506268206561465 -6.153558932272162 0 0 0
22 1 17.741574936552464 -15.097266124186318 -8.122885267397162 0 0 0
55 1 17.040477573979196 -14.439652279764827 -8.68877112165782 0 0 0
310 1 18.13594286617564 -14.24185907989923 -8.75674427719155 0 0 0
417 1 -18.00309050240346 -11.775386499200279 -8.805950773573903 0 0 0
354 1 -13.548211115908828 -12.339790371119134 -6.823987639958725 0 0 0
633 1 -6.571146590066928 -10.13697877754005 -7.621872849033864 0 0 0
62 1 3.469254807383711 -9.769953471387362 -7.663905487661274 0 0 0
481 1 7.24063041895445 -8.999529578757958 -7.105941554491611 0 0 0
1005 2 -6.868673122782704 -8.205128118254278 -7.531934000620145 0 0 0
43 1 11.044712512090126 -8.554840350953315 -8.540744956512523 0 0 0
130 1 -16.973617948133153 -5.072424301869999 -6.936209502895589 0 0 0
991 1 -17.594530652461057 -4.208741445563621 -7.295001862790414 0 0 0
849 1 -9.343061417687387 -2.544446843539607 -6.965350617538163 0 0 0
1059 2 2.858060904913086 -3.36240140358654 -6.502508534421571 0 0 0
1015 2 -2.7917464882096956 -0.883227340357017 -8.803818760814062 0 0 0
1113 2 4.97382967167386 -1.3461915771874395 -8.224585826616696 0 0 0
1092 2 8.284552849346792 -1.6218319593503905 -7.5153671077814534 0 0 0
970 1 8.880421513315762 8.248054107612603e-05 -6.410782432821996 0 0 0
605 1 -12.725035716542159 1.6700683259175015 -7.240806663444176 0 0 0
1082 2 6.939400681989508 3.254139996875855 -6.270554512329593 0 0 0
1054 2 9.478496445060141 1.6241900995452356 -7.407593505108363 0 0 0
1000 1 19.700785944379863 0.37535873209765264 -8.675185412198461 0 0 0
1144 2 -4.354636543192007 4.281893334743942 -8.7148389441401 0 0 0
394 1 8.812348252232132 2.823628796342916 -6.048257070625598 0 0 0
96 1 15.221524087702036 4.230585677140829 -7.887136523217689 0 0 0
212 1 14.847686376228111 3.68822702288536 -6.98235528404077 0 0 0
391 1 -14.119027220672171 6.423129668382799 -7.261185094000893 0 0 0
678 1 8.39121871101229 1.8278696403405925 -5.755823415222708 0 0 0
573 1 18.752580083148466 6.465499152356437 -8.022274103867192 0 0 0
222 1 -8.22282495669639 9.019216276954493 -7.76716653044829 0 0 0
768 1 17.66417389905213 6.738233033349214 -7.990585960667663 0 0 0
164 1 -19.35739889802285 10.92751345864372 -7.471356867134984 0 0 0
677 1 -19.27352559437667 11.886929606752808 -6.890741417153967 0 0 0
232 1 -7.866122667578196 9.718125193820917 -8.561767666974331 0 0 0
149 1 -8.473190815029088 8.819309245705524 -8.842552927815246 0 0 0
118 1 0.8514060465672763 9.842873810868923 -9.312539121021635 0 0 0
992 1 5.601041586344184 8.240400472694953 -10.526896253162388 0 0 0
541 1 -19.237325410754192 11.90364917703016 -8.00849608701486 0 0 0
513 1 10.766652524444334 13.075732650019342 -7.977115544586763 0 0 0
445 1 19.799388846753626 11.67505042598017 -7.4749965096860524 0 0 0
100 1 -18.021734718365504 12.998638455571214 -8.922243471064867 0 0 0
293 1 -18.090049535859237 13.868082518587428 -8.22126372092364 0 0 0
285 1 -8.680286287831475 15.123583107264546 -8.136945131057054 0 0 0
779 1 -9.111551558838988 14.100753368044982 -7.973835637328225 0 0 0
672 1 -8.202691245287067 14.21734501224547 -8.612806796097908 0 0 0
865 1 -3.7396460443647572 15.44902184908346 -7.9024536384071755 0 0 0
774 1 6.5525862001420325 15.018717375615493 -8.635474759163253 0 0 0
14 1 10.792528470314437 14.094593433364755 -8.433514006280106 0 0 0
108 1 11.62784174849009 13.762667411951977 -7.764498144904266 0 0 0
704 1 11.851683508298997 14.359312336412534 -8.685245919250681 0 0 0
7 1 4.014327142965118 16.536587736118587 -7.342534956050088 0 0 0
184 1 3.1546268504880253 16.80773027192695 -6.673545730923601 0 0 0
446 1 11.455840986883617 18.14999975403477 -8.623682972019104 0 0 0
789 1 15.824271929466985 -19.084396121810606 -4.3162681701860715 0 0 0
880 1 -16.62639320631709 -16.598308331381734 -4.772380038805051 0 0 0
299 1 -5.453962573564883 -15.96037467527744 -5.950001629054996 0 0 0
582 1 -4.647256804243302 -16.576829904235485 -6.431914345501181 0 0 0
491 1 1.31391536886202 -17.860544693619328 -7.467432087948279 0 0 0
775 1 -16.37937572869244 -15.514296172047032 -4.936560127010096 0 0 0
879 1 -13.116671732451056 -13.35824620500316 -6.633057997448232 0 0 0
268 1 -9.972192981831963 -15.472489101331416 -5.4333425030223745 0 0 0
635 1 -13.302633849901556 -12.657829740715808 -5.775876751659162 0 0 0
932 1 2.1090974257101185 -12.328353791093443 -6.138442003473503 0 0 0
57 1 2.397654932759745 -11.84188322060523 -5.168920441752964 0 0 0
788 1 15.832434866359 -11.794681477068492 -5.286094278923402 0 0 0
303 1 18.055993133699687 -14.138620558050974 -7.650962794565803 0 0 0
591 1 -9.9333577944421 -8.72188602310673 -4.440763818990926 0 0 0
287 1 -7.283237734145887 -9.946817722274554 -6.776510661850771 0 0 0
613 1 -6.183853045079188 -9.777549196137805 -6.635287357033148 0 0 0
778 1 6.169492023212086 -9.769838006751293 -5.843806098111638 0 0 0
157 1 7.042282798128756 -9.93686574755173 -6.52571141137197 0 0 0
636 1 15.107038152554342 -10.99556909070459 -5.594542088862242 0 0 0
469 1 -16.592077443430714 -7.813561632720265 -6.511853901218044 0 0 0
387 1 -11.007944322802626 -8.74970508623124 -4.768544568441225 0 0 0
410 1 6.187243578333298 -9.284664229849485 -6.853202862858272 0 0 0
72 1 6.885651273168507 -8.932579809872896 -6.04570965961493 0 0 0
1070 2 -5.869060904634445 -5.542993337176695 -5.861114950060081 0 0 0
1018 2 -2.590777896358251 -5.219557771108452 -5.165592840608902 0 0 0
1136 2 -3.6895866639035884 -7.315993896140002 -7.588389971321308 0 0 0
867 1 16.849172728731382 -5.685603230978852 -4.648745368275648 0 0 0
645 1 17.723470855571296 -4.979132121355867 -4.653613420442884 0 0 0
651 1 -9.753404402750885 -2.321735977940417 -5.947794676581654 0 0 0
1125 2 5.994774909689545 -2.8047287229445104 -5.384556364220528 0 0 0
966 1 16.73974567856805 -4.65895973646993 -5.083028151473285 0 0 0
1051 2 -7.891324035293714 -2.8548074130271948 -5.71562314622344 0 0 0
1106 2 10.51599509221262 -0.5700869234876084 -5.367051934740529 0 0 0
531 1 9.652206418669415 -0.29019342870661996 -7.170868290819058 0 0 0
28 1 15.030682895784322 2.9270060052672093 -5.006445502865026 0 0 0
411 1 -13.132394857470322 3.7022139052480973 -4.694840589359857 0 0 0
125 1 14.85809015382829 3.6205427023810115 -5.866730956324418 0 0 0
744 1 14.363857441791128 3.8184989964921927 -4.883304529662796 0 0 0
262 1 -13.370142057668664 7.1296355268058695 -6.814019067132384 0 0 0
517 1 -19.981331290188436 11.08052606659417 -6.556228094372129 0 0 0
600 1 -9.71215283745227 9.789514688896867 -4.5962859420243545 0 0 0
840 1 -9.070095433617917 8.986241391277236 -5.046519894699622 0 0 0
532 1 9.693302676794096 8.498087425876149 -5.058040509767187 0 0 0
584 1 -18.873925343096705 10.933887315116515 -6.465421979006558 0 0 0
650 1 -7.344129734812188 12.591719030402688 -6.498248499285384 0 0 0
725 1 -6.930169566092386 11.913885345535123 -5.70348094125141 0 0 0
933 1 8.200906800392602 14.176278943952392 -3.4407088703747055 0 0 0
455 1 12.688533287060716 11.723793087861532 -5.687515581766025 0 0 0
26 1 13.634733681263864 11.710581594488852 -5.073519904169612 0 0 0
94 1 -8.128207978215288 14.380004356914814 -7.511958880093277 0 0 0
415 1 -3.3847557129462476 14.46817505899656 -7.487829137277834 0 0 0
916 1 7.209090183341694 14.669882361250812 -3.644144272232921 0 0 0
628 1 16.232010063494926 14.407653397333839 -5.1979227655271085 0 0 0
923 1 4.209496247283992 16.957303452611047 -6.32035051667087 0 0 0
386 1 8.15519613738327 15.116421452887542 -4.044068003010804 0 0 0
973 1 11.072241039115008 16.073334248730895 -4.981475438444192 0 0 0
604 1 -18.005188810798078 19.796854276569356 -6.520135387663197 0 0 0
281 1 6.926659181333594 -19.79527431588913 -4.340753053202922 0 1 0
428 1 6.450699936367519 -19.2501579399919 -3.482663249805562 0 0 0
8 1 14.910530643575184 -18.855108773876747 -3.7060016510084837 0 0 0
654 1 -18.092031725753163 -17.306047628889768 -3.8567016125563423 0 0 0
640 1 -0.09801610275059174 -17.075743212774206 -3.064594459331435 0 0 0
29 1 0.9646033270642532 -17.407514486189807 -3.208568020710025 0 0 0